       N       E                     dE             d eps       ncg     rms          rms(c)
DAV:   1     0.743912543766E+04    0.74391E+04   -0.28518E+05165888   0.164E+03
DAV:   2     0.430760764542E+03   -0.70084E+04   -0.66661E+04165888   0.513E+02
DAV:   3    -0.246104266170E+03   -0.67687E+03   -0.65239E+03221824   0.162E+02
DAV:   4    -0.272671466189E+03   -0.26567E+02   -0.26407E+02186752   0.309E+01
DAV:   5    -0.273245088791E+03   -0.57362E+00   -0.57342E+00232064   0.453E+00    0.158E+02
DAV:   6    -0.466165039188E+03   -0.19292E+03   -0.78208E+02211712   0.648E+01    0.661E+01
DAV:   7    -0.531957087633E+03   -0.65792E+02   -0.26658E+02216832   0.495E+01    0.604E+01
DAV:   8    -0.523742017505E+03    0.82151E+01   -0.63384E+01201472   0.244E+01    0.359E+01
DAV:   9    -0.531169216317E+03   -0.74272E+01   -0.79420E+01216192   0.215E+01    0.310E+01
DAV:  10    -0.524531337364E+03    0.66379E+01   -0.11877E+01189376   0.105E+01    0.144E+01
DAV:  11    -0.525955759071E+03   -0.14244E+01   -0.53945E+00210944   0.533E+00    0.594E+00
DAV:  12    -0.526263172160E+03   -0.30741E+00   -0.13893E+00220352   0.300E+00    0.328E+00
DAV:  13    -0.526276805063E+03   -0.13633E-01   -0.25215E-01205760   0.166E+00    0.182E+00
DAV:  14    -0.526273191109E+03    0.36140E-02   -0.62112E-02218432   0.861E-01    0.108E+00
DAV:  15    -0.526270745677E+03    0.24454E-02   -0.17691E-02210880   0.432E-01    0.608E-01
DAV:  16    -0.526270137484E+03    0.60819E-03   -0.65294E-03216704   0.249E-01    0.290E-01
DAV:  17    -0.526270168243E+03   -0.30759E-04   -0.21917E-03222400   0.141E-01    0.144E-01
DAV:  18    -0.526270248983E+03   -0.80739E-04   -0.61371E-04219200   0.661E-02    0.917E-02
DAV:  19    -0.526270263632E+03   -0.14649E-04   -0.11985E-04214272   0.307E-02    0.523E-02
DAV:  20    -0.526270272470E+03   -0.88383E-05   -0.63385E-05235904   0.188E-02    0.248E-02
DAV:  21    -0.526270277642E+03   -0.51718E-05   -0.25024E-05237120   0.117E-02    0.122E-02
DAV:  22    -0.526270281390E+03   -0.37482E-05   -0.13662E-05232512   0.646E-03    0.918E-03
DAV:  23    -0.526270284736E+03   -0.33456E-05   -0.11751E-05224960   0.429E-03    0.774E-03
DAV:  24    -0.526270287922E+03   -0.31856E-05   -0.13061E-05212352   0.372E-03    0.666E-03
DAV:  25    -0.526270290941E+03   -0.30192E-05   -0.14125E-05213312   0.377E-03    0.550E-03
DAV:  26    -0.526270293910E+03   -0.29695E-05   -0.21656E-05212928   0.463E-03    0.307E-03
DAV:  27    -0.526270296758E+03   -0.28482E-05   -0.11064E-05194176   0.330E-03    0.222E-03
DAV:  28    -0.526270298652E+03   -0.18932E-05   -0.50168E-06197696   0.225E-03    0.316E-03
DAV:  29    -0.526270299606E+03   -0.95463E-06   -0.19003E-06176256   0.140E-03    0.462E-03
DAV:  30    -0.526270299509E+03    0.97301E-07   -0.29265E-07164416   0.866E-04
   1 F= -.52627030E+03 E0= -.52627030E+03  d E =-.641367E-08  mag=   -10.0000
