 vasp.5.4.4.18Apr17-6-g9f103f2a35 (build Mar 17 2023 15:15:52) complex          
  
 executed on             LinuxIFC date 2023.05.02  20:48:58
 running on   64 total cores
 distrk:  each k-point on   64 cores,    1 groups
 distr:  one band on NCORES_PER_BAND=   1 cores,   64 groups


--------------------------------------------------------------------------------------------------------


 INCAR:
 POTCAR:    PAW_PBE Cr_pv 02Aug2007               
 POTCAR:    PAW_PBE N 08Apr2002                   

 ----------------------------------------------------------------------------- 
|                                                                             |
|           W    W    AA    RRRRR   N    N  II  N    N   GGGG   !!!           |
|           W    W   A  A   R    R  NN   N  II  NN   N  G    G  !!!           |
|           W    W  A    A  R    R  N N  N  II  N N  N  G       !!!           |
|           W WW W  AAAAAA  RRRRR   N  N N  II  N  N N  G  GGG   !            |
|           WW  WW  A    A  R   R   N   NN  II  N   NN  G    G                |
|           W    W  A    A  R    R  N    N  II  N    N   GGGG   !!!           |
|                                                                             |
|      For optimal performance we recommend to set                            |
|        NCORE= 4 - approx SQRT( number of cores)                             |
|      NCORE specifies how many cores store one orbital (NPAR=cpu/NCORE).     |
|      This setting can  greatly improve the performance of VASP for DFT.     |
|      The default,   NCORE=1            might be grossly inefficient         |
|      on modern multi-core architectures or massively parallel machines.     |
|      Do your own testing !!!!                                               |
|      Unfortunately you need to use the default for GW and RPA calculations. |
|      (for HF NCORE is supported but not extensively tested yet)             |
|                                                                             |
 ----------------------------------------------------------------------------- 

 POTCAR:    PAW_PBE Cr_pv 02Aug2007               
   VRHFIN =Cr : p6d5s1                                                          
   LEXCH  = PE                                                                  
   EATOM  =  1647.9177 eV,  121.1185 Ry                                         
                                                                                
   TITEL  = PAW_PBE Cr_pv 02Aug2007                                             
   LULTRA =        F    use ultrasoft PP ?                                      
   IUNSCR =        1    unscreen: 0-lin 1-nonlin 2-no                           
   RPACOR =    2.080    partial core radius                                     
   POMASS =   51.996; ZVAL   =   12.000    mass and valenz                      
   RCORE  =    2.300    outmost cutoff radius                                   
   RWIGS  =    2.500; RWIGS  =    1.323    wigner-seitz radius (au A)           
   ENMAX  =  265.681; ENMIN  =  199.261 eV                                      
   ICORE  =        3    local potential                                         
   LCOR   =        T    correct aug charges                                     
   LPAW   =        T    paw PP                                                  
   EAUG   =  519.424                                                            
   DEXC   =    0.000                                                            
   RMAX   =    2.356    core radius for proj-oper                               
   RAUG   =    1.300    factor for augmentation sphere                          
   RDEP   =    2.447    radius for radial grids                                 
   RDEPT  =    1.882    core radius for aug-charge                              
                                                                                
   Atomic configuration                                                         
    8 entries                                                                   
     n  l   j            E        occ.                                          
     1  0  0.50     -5880.4963   2.0000                                         
     2  0  0.50      -667.0865   2.0000                                         
     2  1  1.50      -560.6250   6.0000                                         
     3  0  0.50       -73.9860   2.0000                                         
     3  1  1.50       -45.4378   6.0000                                         
     3  2  2.50        -2.9137   5.0000                                         
     4  0  0.50        -4.0071   1.0000                                         
     4  3  2.50        -1.3606   0.0000                                         
   Description                                                                  
     l       E           TYP  RCUT    TYP  RCUT                                 
     1    -45.4377911     23  2.000                                             
     1      1.3605826     23  2.000                                             
     2     -2.9136672     23  2.300                                             
     2     -4.2742498     23  2.300                                             
     0     -4.0071320     23  2.300                                             
     0      9.4498803     23  2.300                                             
     3      2.7211652     23  2.300                                             
  local pseudopotential read in
  partial core-charges read in
  partial kinetic energy density read in
  atomic valenz-charges read in
  non local Contribution for L=           1  read in
    real space projection operators read in
  non local Contribution for L=           1  read in
    real space projection operators read in
  non local Contribution for L=           2  read in
    real space projection operators read in
  non local Contribution for L=           2  read in
    real space projection operators read in
  non local Contribution for L=           0  read in
    real space projection operators read in
  non local Contribution for L=           0  read in
    real space projection operators read in
    PAW grid and wavefunctions read in
 
   number of l-projection  operators is LMAX  =           6
   number of lm-projection operators is LMMAX =          18
 
 POTCAR:    PAW_PBE N 08Apr2002                   
   VRHFIN =N: s2p3                                                              
   LEXCH  = PE                                                                  
   EATOM  =   264.5486 eV,   19.4438 Ry                                         
                                                                                
   TITEL  = PAW_PBE N 08Apr2002                                                 
   LULTRA =        F    use ultrasoft PP ?                                      
   IUNSCR =        1    unscreen: 0-lin 1-nonlin 2-no                           
   RPACOR =    1.200    partial core radius                                     
   POMASS =   14.001; ZVAL   =    5.000    mass and valenz                      
   RCORE  =    1.500    outmost cutoff radius                                   
   RWIGS  =    1.400; RWIGS  =    0.741    wigner-seitz radius (au A)           
   ENMAX  =  400.000; ENMIN  =  300.000 eV                                      
   ICORE  =        2    local potential                                         
   LCOR   =        T    correct aug charges                                     
   LPAW   =        T    paw PP                                                  
   EAUG   =  627.112                                                            
   DEXC   =    0.000                                                            
   RMAX   =    1.529    core radius for proj-oper                               
   RAUG   =    1.300    factor for augmentation sphere                          
   RDEP   =    1.514    radius for radial grids                                 
   RDEPT  =    1.338    core radius for aug-charge                              
                                                                                
   Atomic configuration                                                         
    4 entries                                                                   
     n  l   j            E        occ.                                          
     1  0  0.50      -384.7179   2.0000                                         
     2  0  0.50       -18.5828   2.0000                                         
     2  1  0.50        -7.0898   3.0000                                         
     3  2  1.50        -6.8029   0.0000                                         
   Description                                                                  
     l       E           TYP  RCUT    TYP  RCUT                                 
     0    -18.5828119     23  1.200                                             
     0    -13.5018863     23  1.200                                             
     1     -7.0897853     23  1.500                                             
     1      9.5240782     23  1.500                                             
     2     -6.8029130      7  1.500                                             
  local pseudopotential read in
  partial core-charges read in
  partial kinetic energy density read in
  atomic valenz-charges read in
  non local Contribution for L=           0  read in
    real space projection operators read in
  non local Contribution for L=           0  read in
    real space projection operators read in
  non local Contribution for L=           1  read in
    real space projection operators read in
  non local Contribution for L=           1  read in
    real space projection operators read in
    PAW grid and wavefunctions read in
 
   number of l-projection  operators is LMAX  =           4
   number of lm-projection operators is LMMAX =           8
 

 ----------------------------------------------------------------------------- 
|                                                                             |
|  ADVICE TO THIS USER RUNNING 'VASP/VAMP'   (HEAR YOUR MASTER'S VOICE ...):  |
|                                                                             |
|      You have a (more or less) 'large supercell' and for larger cells       |
|      it might be more efficient to use real space projection opertators     |
|      So try LREAL= Auto  in the INCAR   file.                               |
|      Mind:          For very  accurate calculation you might also keep the  |
|      reciprocal projection scheme          (i.e. LREAL=.FALSE.)             |
|                                                                             |
 ----------------------------------------------------------------------------- 

  PAW_PBE Cr_pv 02Aug2007               :
 energy of atom  1       EATOM=-1647.9177
 kinetic energy error for atom=    0.0061 (will be added to EATOM!!)
  PAW_PBE N 08Apr2002                   :
 energy of atom  2       EATOM= -264.5486
 kinetic energy error for atom=    0.0138 (will be added to EATOM!!)
 
 
 POSCAR:  generated by phonopy                   
  positions in direct lattice
  No initial velocities read in
 exchange correlation table for  LEXCH =        8
   RHO(1)=    0.500       N(1)  =     2000
   RHO(2)=  100.500       N(2)  =     4000
 


--------------------------------------------------------------------------------------------------------


 ion  position               nearest neighbor table
   1  0.284  0.005  0.003-  42 1.85  51 1.90  61 2.11  49 2.20  57 2.26  41 2.30  15 2.66  28 2.68
                            22 2.80  18 2.83  21 3.01  11 3.07  26 3.09  27 3.15  25 3.15  17 3.16
   2  0.778  0.018  0.004-  41 1.98  62 1.99  50 2.08  58 2.24  52 2.28  42 2.35  14 2.81  17 2.91
                            21 2.92  25 2.93  26 2.96  27 2.99  12 2.99  28 3.02  16 3.04  22 3.06
   3  0.256  0.508  0.017-  63 2.07  43 2.07  49 2.08  59 2.13  44 2.29  51 2.33  19 2.84  23 2.86
                            25 2.88  13 2.94   9 2.95  27 2.95  11 3.06  15 3.07  24 3.08  20 3.10
   4  0.781  0.511  0.023-  43 1.96  60 2.04  52 2.04  50 2.12  44 2.16  64 2.30  10 2.78  27 2.83
                            19 2.84  25 2.91  23 2.92  14 2.93  26 2.93  16 2.98  24 3.03  12 3.10
   5  0.262  0.014  0.526-  55 1.94  61 1.95  53 2.01  45 2.03  46 2.11  57 2.21  21 2.85  22 2.91
                            32 2.93  15 2.94  31 2.94  29 2.95  13 3.00  11 3.03  18 3.08   9 3.09
   6  0.756  0.001  0.526-  56 1.91  62 2.08  46 2.11  58 2.21  45 2.26  54 2.32  31 2.84  12 2.88
                            22 2.90  32 2.90  16 2.96  21 3.03  29 3.07  30 3.11  14 3.13  17 3.15
   7  0.252  0.505  0.530-  47 1.88  63 2.07  53 2.17  48 2.18  59 2.24  55 2.38  13 2.69   9 2.87
                            23 2.87  29 2.93  30 2.95  20 3.03  19 3.04  32 3.10  11 3.11  24 3.11
   8  0.785  0.508  0.505-  54 2.02  60 2.08  47 2.10  64 2.12  56 2.29  48 2.33  10 2.85  29 2.89
                            19 2.91  30 2.97  31 2.97  16 3.03  20 3.03  23 3.05  12 3.10  14 3.15
   9  0.269  0.280  0.278-  59 2.01  57 2.10  53 2.18  33 2.18  34 2.24  49 2.29   7 2.87  19 2.88
                            30 2.91   3 2.95  20 2.97  18 2.99  25 3.02  29 3.02   5 3.09  17 3.11
  10  0.757  0.284  0.257-  34 1.90  50 1.98  60 2.14  33 2.17  58 2.23  54 2.34  26 2.77   4 2.78
                             8 2.85  19 2.96  30 2.97  25 2.97  20 3.00  17 3.11  18 3.12   2 3.13
  11  0.261  0.763  0.271-  35 1.98  59 2.10  36 2.15  55 2.17  51 2.27  57 2.29  20 2.85  32 2.93
                            19 2.95  18 2.98  28 3.01   5 3.03  17 3.04   3 3.06   1 3.07  31 3.11
  12  0.767  0.783  0.266-  58 2.04  56 2.08  60 2.11  36 2.13  35 2.21  52 2.26   6 2.88  17 2.88
                            18 2.99   2 2.99  28 3.03  20 3.04  31 3.05  27 3.05  32 3.07   8 3.10
  13  0.266  0.282  0.755-  53 1.91  63 1.91  37 2.00  49 2.17  38 2.20  61 2.31   7 2.69  29 2.90
                            23 2.94   3 2.94  30 2.96   5 3.00  21 3.03  24 3.07  22 3.11  25 3.11
  14  0.761  0.264  0.783-  38 2.01  50 2.06  62 2.09  54 2.14  64 2.21  37 2.27  26 2.76   2 2.81
                             4 2.93  25 3.00  21 3.03  22 3.04  24 3.05  29 3.06  30 3.08  23 3.13
  15  0.252  0.783  0.784-  39 1.86  51 1.88  61 1.95  55 2.20  40 2.33  63 2.35   1 2.66  27 2.78
                            21 2.81  22 2.91  23 2.93   5 2.94  28 2.95  31 2.98   3 3.07  32 3.12
  16  0.782  0.750  0.766-  64 1.95  52 2.01  39 2.15  40 2.17  56 2.18  62 2.29  31 2.75  23 2.78
                            27 2.79  24 2.84   6 2.96   4 2.98   8 3.03   2 3.04  21 3.07  28 3.16
  17  0.011  0.020  0.256-  33 2.08  41 2.09  45 2.17  57 2.17  58 2.19  35 2.20  25 2.85  12 2.88
                             2 2.91  11 3.04  29 3.05   9 3.11  10 3.11   5 3.12  27 3.12  31 3.13
  18  0.503  0.017  0.254-  57 2.01  42 2.04  36 2.04  46 2.11  58 2.11  34 2.24  28 2.82   1 2.83
                            26 2.95  11 2.98  12 2.99   9 2.99  32 3.07   5 3.08  10 3.12  30 3.15
  19  0.021  0.511  0.256-  43 2.00  60 2.02  47 2.09  33 2.10  59 2.11  35 2.13   4 2.84   3 2.84
                            25 2.87   9 2.88   8 2.91  11 2.95  10 2.96  27 2.98   7 3.04  29 3.16
  20  0.508  0.535  0.281-  48 1.92  59 2.02  36 2.07  44 2.11  34 2.20  60 2.34  32 2.82  11 2.85
                            30 2.94   9 2.97  10 3.00   8 3.03   7 3.03  12 3.04  28 3.08   3 3.10
  21  0.023  0.021  0.762-  61 2.01  41 2.11  45 2.15  39 2.16  37 2.18  62 2.20  15 2.81  31 2.84
                            29 2.84   5 2.85   2 2.92   1 3.01   6 3.03  13 3.03  14 3.03  25 3.05
  22  0.510  0.009  0.762-  40 1.98  61 2.12  62 2.14  42 2.15  38 2.18  46 2.22   1 2.80  28 2.89
                             6 2.90   5 2.91  15 2.91  32 2.93  14 3.04   2 3.06  26 3.10  13 3.11
  23  0.021  0.526  0.776-  63 2.00  39 2.06  43 2.08  37 2.12  64 2.19  47 2.34  27 2.73  16 2.78
                             3 2.86   7 2.87   4 2.92  15 2.93  13 2.94  31 2.97   8 3.05  25 3.07
  24  0.525  0.535  0.774-  64 2.02  40 2.06  44 2.22  38 2.29  63 2.29  48 2.31  16 2.84  32 2.95
                            28 2.97   4 3.03  14 3.05  26 3.07  13 3.07   3 3.08  30 3.09   7 3.11
  25  0.019  0.264  0.026-  33 2.05  50 2.09  41 2.10  49 2.20  43 2.22  37 2.23  17 2.85  19 2.87
                             3 2.88   4 2.91   2 2.93  10 2.97  14 3.00   9 3.02  21 3.05  23 3.07
  26  0.535  0.269  0.017-  50 2.01  42 2.04  38 2.06  44 2.13  49 2.17  34 2.26  14 2.76  10 2.77
                             4 2.93  18 2.95   2 2.96  24 3.07   1 3.09  22 3.10   3 3.11   9 3.16
  27  0.010  0.754  0.002-  43 1.94  52 2.06  39 2.11  51 2.14  41 2.24  35 2.33  23 2.73  15 2.78
                            16 2.79   4 2.83   3 2.95  19 2.98   2 2.99  21 3.05  12 3.05  11 3.12
  28  0.510  0.784  0.018-  42 2.09  51 2.11  36 2.13  40 2.13  52 2.20  44 2.26   1 2.68  18 2.82
                            22 2.89  15 2.95  24 2.97  11 3.01   2 3.02  12 3.03  20 3.08  16 3.16
  29  0.013  0.256  0.526-  37 2.03  45 2.17  54 2.17  33 2.21  53 2.24  47 2.27  21 2.84   8 2.89
                            13 2.90   7 2.93   5 2.95   9 3.02  17 3.05  14 3.06   6 3.07  23 3.13
  30  0.518  0.280  0.514-  48 1.88  34 1.97  54 2.03  53 2.06  46 2.12  38 2.22   9 2.91  20 2.94
                             7 2.95  13 2.96  10 2.97   8 2.97  14 3.08  24 3.09   6 3.11  22 3.12
  31  0.006  0.778  0.534-  39 1.90  45 1.92  56 2.07  55 2.13  35 2.20  47 2.21  16 2.75  21 2.84
                             6 2.84   5 2.94  23 2.97   8 2.97  15 2.98  12 3.05  11 3.11   7 3.12
  32  0.505  0.768  0.516-  55 2.10  36 2.11  40 2.14  56 2.18  46 2.24  48 2.28  20 2.82   6 2.90
                            22 2.93   5 2.93  11 2.93  24 2.95  12 3.07  18 3.07   7 3.10  15 3.12
  33  0.012  0.265  0.266-  25 2.05  17 2.08  19 2.10  10 2.17   9 2.18  29 2.21
  34  0.533  0.278  0.283-  10 1.90  30 1.97  20 2.20   9 2.24  18 2.24  26 2.26
  35  0.027  0.762  0.276-  11 1.98  19 2.13  17 2.20  31 2.20  12 2.21  27 2.33
  36  0.515  0.778  0.268-  18 2.04  20 2.07  32 2.11  28 2.13  12 2.13  11 2.15
  37  0.029  0.277  0.763-  13 2.00  29 2.03  23 2.12  21 2.18  25 2.23  14 2.27
  38  0.524  0.266  0.775-  14 2.01  26 2.06  22 2.18  13 2.20  30 2.22  24 2.29
  39  0.035  0.767  0.755-  15 1.86  31 1.90  23 2.06  27 2.11  16 2.15  21 2.16
  40  0.527  0.778  0.767-  22 1.98  24 2.06  28 2.13  32 2.14  16 2.17  15 2.33
  41  0.012  0.018  0.011-   2 1.98  17 2.09  25 2.10  21 2.11  27 2.24   1 2.30
  42  0.501  0.030  0.015-   1 1.85  18 2.04  26 2.04  28 2.09  22 2.15   2 2.35
  43  0.012  0.526  0.020-  27 1.94   4 1.96  19 2.00   3 2.07  23 2.08  25 2.22
  44  0.527  0.519  0.034-  20 2.11  26 2.13   4 2.16  24 2.22  28 2.26   3 2.29
  45  0.023  0.002  0.510-  31 1.92   5 2.03  21 2.15  29 2.17  17 2.17   6 2.26
  46  0.510  0.032  0.502-  18 2.11   6 2.11   5 2.11  30 2.12  22 2.22  32 2.24
  47  0.033  0.522  0.502-   7 1.88  19 2.09   8 2.10  31 2.21  29 2.27  23 2.34
  48  0.509  0.501  0.505-  30 1.88  20 1.92   7 2.18  32 2.28  24 2.31   8 2.33
  49  0.278  0.264  0.009-   3 2.08  13 2.17  26 2.17  25 2.20   1 2.20   9 2.29
  50  0.772  0.262  0.025-  10 1.98  26 2.01  14 2.06   2 2.08  25 2.09   4 2.12
  51  0.261  0.782  0.005-  15 1.88   1 1.90  28 2.11  27 2.14  11 2.27   3 2.33
  52  0.767  0.751  0.002-  16 2.01   4 2.04  27 2.06  28 2.20  12 2.26   2 2.28
  53  0.278  0.250  0.533-  13 1.91   5 2.01  30 2.06   7 2.17   9 2.18  29 2.24
  54  0.758  0.274  0.532-   8 2.02  30 2.03  14 2.14  29 2.17   6 2.32  10 2.34
  55  0.258  0.785  0.526-   5 1.94  32 2.10  31 2.13  11 2.17  15 2.20   7 2.38
  56  0.763  0.776  0.511-   6 1.91  31 2.07  12 2.08  16 2.18  32 2.18   8 2.29
  57  0.267  0.033  0.266-  18 2.01   9 2.10  17 2.17   5 2.21   1 2.26  11 2.29
  58  0.752  0.022  0.267-  12 2.04  18 2.11  17 2.19   6 2.21  10 2.23   2 2.24
  59  0.270  0.516  0.267-   9 2.01  20 2.02  11 2.10  19 2.11   3 2.13   7 2.24
  60  0.784  0.535  0.261-  19 2.02   4 2.04   8 2.08  12 2.11  10 2.14  20 2.34
  61  0.260  0.010  0.755-  15 1.95   5 1.95  21 2.01   1 2.11  22 2.12  13 2.31
  62  0.763  0.019  0.770-   2 1.99   6 2.08  14 2.09  22 2.14  21 2.20  16 2.29
  63  0.256  0.507  0.774-  13 1.91  23 2.00   3 2.07   7 2.07  24 2.29  15 2.35
  64  0.763  0.522  0.753-  16 1.95  24 2.02   8 2.12  23 2.19  14 2.21   4 2.30
 
  LATTYP: Found a simple tetragonal cell.
 ALAT       =     8.4952355900
 C/A-ratio  =     0.9957481450
  
  Lattice vectors:
  
 A1 = (   0.0000000000,   8.4952355900,   0.0000000000)
 A2 = (   0.0000000000,   0.0000000000,  -8.4952355900)
 A3 = (  -8.4591150800,   0.0000000000,   0.0000000000)


Analysis of symmetry for initial positions (statically):
=====================================================================
 Subroutine PRICEL returns:
 Original cell was already a primitive cell.
 

 Routine SETGRP: Setting up the symmetry group for a 
 simple tetragonal supercell.


 Subroutine GETGRP returns: Found  1 space group operations
 (whereof  1 operations were pure point group operations)
 out of a pool of 16 trial point group operations.


The static configuration has the point symmetry C_1 .


Analysis of symmetry for dynamics (positions and initial velocities):
=====================================================================
 Subroutine PRICEL returns:
 Original cell was already a primitive cell.
 

 Routine SETGRP: Setting up the symmetry group for a 
 simple tetragonal supercell.


 Subroutine GETGRP returns: Found  1 space group operations
 (whereof  1 operations were pure point group operations)
 out of a pool of 16 trial point group operations.


The dynamic configuration has the point symmetry C_1 .


Analysis of structural, dynamic, and magnetic symmetry:
=====================================================================
 Subroutine PRICEL returns:
 Original cell was already a primitive cell.
 

 Routine SETGRP: Setting up the symmetry group for a 
 simple tetragonal supercell.


 Subroutine GETGRP returns: Found  1 space group operations
 (whereof  1 operations were pure point group operations)
 out of a pool of 16 trial point group operations.


The magnetic configuration has the point symmetry C_1 .


 Subroutine INISYM returns: Found  1 space group operations
 (whereof  1 operations are pure point group operations),
 and found     1 'primitive' translations

 
 
 KPOINTS: pymatgen with grid density = 1780 / numb

Automatic generation of k-mesh.
Space group operators:
 irot       det(A)        alpha          n_x          n_y          n_z        tau_x        tau_y        tau_z
    1     1.000000     0.000000     1.000000     0.000000     0.000000     0.000000     0.000000     0.000000
 
 Subroutine IBZKPT returns following result:
 ===========================================
 
 Found    108 irreducible k-points:
 
 Following reciprocal coordinates:
            Coordinates               Weight
  0.083333  0.083333  0.083333      2.000000
  0.250000  0.083333  0.083333      2.000000
  0.416667  0.083333  0.083333      2.000000
 -0.416667  0.083333  0.083333      2.000000
 -0.250000  0.083333  0.083333      2.000000
 -0.083333  0.083333  0.083333      2.000000
  0.083333  0.250000  0.083333      2.000000
  0.250000  0.250000  0.083333      2.000000
  0.416667  0.250000  0.083333      2.000000
 -0.416667  0.250000  0.083333      2.000000
 -0.250000  0.250000  0.083333      2.000000
 -0.083333  0.250000  0.083333      2.000000
  0.083333  0.416667  0.083333      2.000000
  0.250000  0.416667  0.083333      2.000000
  0.416667  0.416667  0.083333      2.000000
 -0.416667  0.416667  0.083333      2.000000
 -0.250000  0.416667  0.083333      2.000000
 -0.083333  0.416667  0.083333      2.000000
  0.083333 -0.416667  0.083333      2.000000
  0.250000 -0.416667  0.083333      2.000000
  0.416667 -0.416667  0.083333      2.000000
 -0.416667 -0.416667  0.083333      2.000000
 -0.250000 -0.416667  0.083333      2.000000
 -0.083333 -0.416667  0.083333      2.000000
  0.083333 -0.250000  0.083333      2.000000
  0.250000 -0.250000  0.083333      2.000000
  0.416667 -0.250000  0.083333      2.000000
 -0.416667 -0.250000  0.083333      2.000000
 -0.250000 -0.250000  0.083333      2.000000
 -0.083333 -0.250000  0.083333      2.000000
  0.083333 -0.083333  0.083333      2.000000
  0.250000 -0.083333  0.083333      2.000000
  0.416667 -0.083333  0.083333      2.000000
 -0.416667 -0.083333  0.083333      2.000000
 -0.250000 -0.083333  0.083333      2.000000
 -0.083333 -0.083333  0.083333      2.000000
  0.083333  0.083333  0.250000      2.000000
  0.250000  0.083333  0.250000      2.000000
  0.416667  0.083333  0.250000      2.000000
 -0.416667  0.083333  0.250000      2.000000
 -0.250000  0.083333  0.250000      2.000000
 -0.083333  0.083333  0.250000      2.000000
  0.083333  0.250000  0.250000      2.000000
  0.250000  0.250000  0.250000      2.000000
  0.416667  0.250000  0.250000      2.000000
 -0.416667  0.250000  0.250000      2.000000
 -0.250000  0.250000  0.250000      2.000000
 -0.083333  0.250000  0.250000      2.000000
  0.083333  0.416667  0.250000      2.000000
  0.250000  0.416667  0.250000      2.000000
  0.416667  0.416667  0.250000      2.000000
 -0.416667  0.416667  0.250000      2.000000
 -0.250000  0.416667  0.250000      2.000000
 -0.083333  0.416667  0.250000      2.000000
  0.083333 -0.416667  0.250000      2.000000
  0.250000 -0.416667  0.250000      2.000000
  0.416667 -0.416667  0.250000      2.000000
 -0.416667 -0.416667  0.250000      2.000000
 -0.250000 -0.416667  0.250000      2.000000
 -0.083333 -0.416667  0.250000      2.000000
  0.083333 -0.250000  0.250000      2.000000
  0.250000 -0.250000  0.250000      2.000000
  0.416667 -0.250000  0.250000      2.000000
 -0.416667 -0.250000  0.250000      2.000000
 -0.250000 -0.250000  0.250000      2.000000
 -0.083333 -0.250000  0.250000      2.000000
  0.083333 -0.083333  0.250000      2.000000
  0.250000 -0.083333  0.250000      2.000000
  0.416667 -0.083333  0.250000      2.000000
 -0.416667 -0.083333  0.250000      2.000000
 -0.250000 -0.083333  0.250000      2.000000
 -0.083333 -0.083333  0.250000      2.000000
  0.083333  0.083333  0.416667      2.000000
  0.250000  0.083333  0.416667      2.000000
  0.416667  0.083333  0.416667      2.000000
 -0.416667  0.083333  0.416667      2.000000
 -0.250000  0.083333  0.416667      2.000000
 -0.083333  0.083333  0.416667      2.000000
  0.083333  0.250000  0.416667      2.000000
  0.250000  0.250000  0.416667      2.000000
  0.416667  0.250000  0.416667      2.000000
 -0.416667  0.250000  0.416667      2.000000
 -0.250000  0.250000  0.416667      2.000000
 -0.083333  0.250000  0.416667      2.000000
  0.083333  0.416667  0.416667      2.000000
  0.250000  0.416667  0.416667      2.000000
  0.416667  0.416667  0.416667      2.000000
 -0.416667  0.416667  0.416667      2.000000
 -0.250000  0.416667  0.416667      2.000000
 -0.083333  0.416667  0.416667      2.000000
  0.083333 -0.416667  0.416667      2.000000
  0.250000 -0.416667  0.416667      2.000000
  0.416667 -0.416667  0.416667      2.000000
 -0.416667 -0.416667  0.416667      2.000000
 -0.250000 -0.416667  0.416667      2.000000
 -0.083333 -0.416667  0.416667      2.000000
  0.083333 -0.250000  0.416667      2.000000
  0.250000 -0.250000  0.416667      2.000000
  0.416667 -0.250000  0.416667      2.000000
 -0.416667 -0.250000  0.416667      2.000000
 -0.250000 -0.250000  0.416667      2.000000
 -0.083333 -0.250000  0.416667      2.000000
  0.083333 -0.083333  0.416667      2.000000
  0.250000 -0.083333  0.416667      2.000000
  0.416667 -0.083333  0.416667      2.000000
 -0.416667 -0.083333  0.416667      2.000000
 -0.250000 -0.083333  0.416667      2.000000
 -0.083333 -0.083333  0.416667      2.000000
 
 Following cartesian coordinates:
            Coordinates               Weight
  0.009851  0.009809  0.009809      2.000000
  0.029554  0.009809  0.009809      2.000000
  0.049257  0.009809  0.009809      2.000000
 -0.049257  0.009809  0.009809      2.000000
 -0.029554  0.009809  0.009809      2.000000
 -0.009851  0.009809  0.009809      2.000000
  0.009851  0.029428  0.009809      2.000000
  0.029554  0.029428  0.009809      2.000000
  0.049257  0.029428  0.009809      2.000000
 -0.049257  0.029428  0.009809      2.000000
 -0.029554  0.029428  0.009809      2.000000
 -0.009851  0.029428  0.009809      2.000000
  0.009851  0.049047  0.009809      2.000000
  0.029554  0.049047  0.009809      2.000000
  0.049257  0.049047  0.009809      2.000000
 -0.049257  0.049047  0.009809      2.000000
 -0.029554  0.049047  0.009809      2.000000
 -0.009851  0.049047  0.009809      2.000000
  0.009851 -0.049047  0.009809      2.000000
  0.029554 -0.049047  0.009809      2.000000
  0.049257 -0.049047  0.009809      2.000000
 -0.049257 -0.049047  0.009809      2.000000
 -0.029554 -0.049047  0.009809      2.000000
 -0.009851 -0.049047  0.009809      2.000000
  0.009851 -0.029428  0.009809      2.000000
  0.029554 -0.029428  0.009809      2.000000
  0.049257 -0.029428  0.009809      2.000000
 -0.049257 -0.029428  0.009809      2.000000
 -0.029554 -0.029428  0.009809      2.000000
 -0.009851 -0.029428  0.009809      2.000000
  0.009851 -0.009809  0.009809      2.000000
  0.029554 -0.009809  0.009809      2.000000
  0.049257 -0.009809  0.009809      2.000000
 -0.049257 -0.009809  0.009809      2.000000
 -0.029554 -0.009809  0.009809      2.000000
 -0.009851 -0.009809  0.009809      2.000000
  0.009851  0.009809  0.029428      2.000000
  0.029554  0.009809  0.029428      2.000000
  0.049257  0.009809  0.029428      2.000000
 -0.049257  0.009809  0.029428      2.000000
 -0.029554  0.009809  0.029428      2.000000
 -0.009851  0.009809  0.029428      2.000000
  0.009851  0.029428  0.029428      2.000000
  0.029554  0.029428  0.029428      2.000000
  0.049257  0.029428  0.029428      2.000000
 -0.049257  0.029428  0.029428      2.000000
 -0.029554  0.029428  0.029428      2.000000
 -0.009851  0.029428  0.029428      2.000000
  0.009851  0.049047  0.029428      2.000000
  0.029554  0.049047  0.029428      2.000000
  0.049257  0.049047  0.029428      2.000000
 -0.049257  0.049047  0.029428      2.000000
 -0.029554  0.049047  0.029428      2.000000
 -0.009851  0.049047  0.029428      2.000000
  0.009851 -0.049047  0.029428      2.000000
  0.029554 -0.049047  0.029428      2.000000
  0.049257 -0.049047  0.029428      2.000000
 -0.049257 -0.049047  0.029428      2.000000
 -0.029554 -0.049047  0.029428      2.000000
 -0.009851 -0.049047  0.029428      2.000000
  0.009851 -0.029428  0.029428      2.000000
  0.029554 -0.029428  0.029428      2.000000
  0.049257 -0.029428  0.029428      2.000000
 -0.049257 -0.029428  0.029428      2.000000
 -0.029554 -0.029428  0.029428      2.000000
 -0.009851 -0.029428  0.029428      2.000000
  0.009851 -0.009809  0.029428      2.000000
  0.029554 -0.009809  0.029428      2.000000
  0.049257 -0.009809  0.029428      2.000000
 -0.049257 -0.009809  0.029428      2.000000
 -0.029554 -0.009809  0.029428      2.000000
 -0.009851 -0.009809  0.029428      2.000000
  0.009851  0.009809  0.049047      2.000000
  0.029554  0.009809  0.049047      2.000000
  0.049257  0.009809  0.049047      2.000000
 -0.049257  0.009809  0.049047      2.000000
 -0.029554  0.009809  0.049047      2.000000
 -0.009851  0.009809  0.049047      2.000000
  0.009851  0.029428  0.049047      2.000000
  0.029554  0.029428  0.049047      2.000000
  0.049257  0.029428  0.049047      2.000000
 -0.049257  0.029428  0.049047      2.000000
 -0.029554  0.029428  0.049047      2.000000
 -0.009851  0.029428  0.049047      2.000000
  0.009851  0.049047  0.049047      2.000000
  0.029554  0.049047  0.049047      2.000000
  0.049257  0.049047  0.049047      2.000000
 -0.049257  0.049047  0.049047      2.000000
 -0.029554  0.049047  0.049047      2.000000
 -0.009851  0.049047  0.049047      2.000000
  0.009851 -0.049047  0.049047      2.000000
  0.029554 -0.049047  0.049047      2.000000
  0.049257 -0.049047  0.049047      2.000000
 -0.049257 -0.049047  0.049047      2.000000
 -0.029554 -0.049047  0.049047      2.000000
 -0.009851 -0.049047  0.049047      2.000000
  0.009851 -0.029428  0.049047      2.000000
  0.029554 -0.029428  0.049047      2.000000
  0.049257 -0.029428  0.049047      2.000000
 -0.049257 -0.029428  0.049047      2.000000
 -0.029554 -0.029428  0.049047      2.000000
 -0.009851 -0.029428  0.049047      2.000000
  0.009851 -0.009809  0.049047      2.000000
  0.029554 -0.009809  0.049047      2.000000
  0.049257 -0.009809  0.049047      2.000000
 -0.049257 -0.009809  0.049047      2.000000
 -0.029554 -0.009809  0.049047      2.000000
 -0.009851 -0.009809  0.049047      2.000000
 


--------------------------------------------------------------------------------------------------------




 Dimension of arrays:
   k-points           NKPTS =    108   k-points in BZ     NKDIM =    108   number of bands    NBANDS=    384
   number of dos      NEDOS =    301   number of ions     NIONS =     64
   non local maximal  LDIM  =      6   non local SUM 2l+1 LMDIM =     18
   total plane-waves  NPLWV = 262144
   max r-space proj   IRMAX =      1   max aug-charges    IRDMAX= 119719
   dimension x,y,z NGX =    64 NGY =   64 NGZ =   64
   dimension x,y,z NGXF=   128 NGYF=  128 NGZF=  128
   support grid    NGXF=   256 NGYF=  256 NGZF=  256
   ions per type =              32  32
   NGX,Y,Z   is equivalent  to a cutoff of  12.58, 12.52, 12.52 a.u.
   NGXF,Y,Z  is equivalent  to a cutoff of  25.16, 25.05, 25.05 a.u.

 SYSTEM =  CrN                                     
 POSCAR =   generated by phonopy                   

 Startparameter for this run:
   NWRITE =      2    write-flag & timer
   PREC   = accura    normal or accurate (medium, high low for compatibility)
   ISTART =      0    job   : 0-new  1-cont  2-samecut
   ICHARG =      2    charge: 1-file 2-atom 10-const
   ISPIN  =      2    spin polarized calculation?
   LNONCOLLINEAR =      F non collinear calculations
   LSORBIT =      F    spin-orbit coupling
   INIWAV =      1    electr: 0-lowe 1-rand  2-diag
   LASPH  =      T    aspherical Exc in radial PAW
   METAGGA=      F    non-selfconsistent MetaGGA calc.

 Electronic Relaxation 1
   ENCUT  =  500.0 eV  36.75 Ry    6.06 a.u.  15.42 15.49 15.49*2*pi/ulx,y,z
   ENINI  =  500.0     initial cutoff
   ENAUG  =  627.1 eV  augmentation charge cutoff
   NELM   =    160;   NELMIN=  4; NELMDL= -5     # of ELM steps 
   EDIFF  = 0.1E-06   stopping-criterion for ELM
   LREAL  =      F    real-space projection
   NLSPLINE    = F    spline interpolate recip. space projectors
   LCOMPAT=      F    compatible to vasp.4.4
   GGA_COMPAT  = T    GGA compatible to vasp.4.4-vasp.4.6
   LMAXPAW     = -100 max onsite density
   LMAXMIX     =    2 max onsite mixed and CHGCAR
   VOSKOWN=      0    Vosko Wilk Nusair interpolation
   ROPT   =    0.00000   0.00000
 Ionic relaxation
   EDIFFG = -.5E-02   stopping-criterion for IOM
   NSW    =      0    number of steps for IOM
   NBLOCK =      1;   KBLOCK =      1    inner block; outer block 
   IBRION =     -1    ionic relax: 0-MD 1-quasi-New 2-CG
   NFREE  =      0    steps in history (QN), initial steepest desc. (CG)
   ISIF   =      3    stress and relaxation
   IWAVPR =     10    prediction:  0-non 1-charg 2-wave 3-comb
   ISYM   =      2    0-nonsym 1-usesym 2-fastsym
   LCORR  =      T    Harris-Foulkes like correction to forces

   POTIM  = 0.5000    time-step for ionic-motion
   TEIN   =    0.0    initial temperature
   TEBEG  =    0.0;   TEEND  =   0.0 temperature during run
   SMASS  =  -3.00    Nose mass-parameter (am)
   estimated Nose-frequenzy (Omega)   =  0.10E-29 period in steps =****** mass=  -0.164E-26a.u.
   SCALEE = 1.0000    scale energy and forces
   NPACO  =    256;   APACO  = 16.0  distance and # of slots for P.C.
   PSTRESS=    0.0 pullay stress

  Mass of Ions in am
   POMASS =  52.00 14.00
  Ionic Valenz
   ZVAL   =  12.00  5.00
  Atomic Wigner-Seitz radii
   RWIGS  =  -1.00 -1.00
  virtual crystal weights 
   VCA    =   1.00  1.00
   NELECT =     544.0000    total number of electrons
   NUPDOWN=      -1.0000    fix difference up-down

 DOS related values:
   EMIN   =  10.00;   EMAX   =-10.00  energy-range for DOS
   EFERMI =   0.00
   ISMEAR =    -1;   SIGMA  =   0.01  broadening in eV -4-tet -1-fermi 0-gaus

 Electronic relaxation 2 (details)
   IALGO  =     38    algorithm
   LDIAG  =      T    sub-space diagonalisation (order eigenvalues)
   LSUBROT=      F    optimize rotation matrix (better conditioning)
   TURBO    =      0    0=normal 1=particle mesh
   IRESTART =      0    0=no restart 2=restart with 2 vectors
   NREBOOT  =      0    no. of reboots
   NMIN     =      0    reboot dimension
   EREF     =   0.00    reference energy to select bands
   IMIX   =      4    mixing-type and parameters
     AMIX     =   0.40;   BMIX     =  1.00
     AMIX_MAG =   1.60;   BMIX_MAG =  1.00
     AMIN     =   0.10
     WC   =   100.;   INIMIX=   1;  MIXPRE=   1;  MAXMIX= -45

 Intra band minimization:
   WEIMIN = 0.0000     energy-eigenvalue tresh-hold
   EBREAK =  0.65E-10  absolut break condition
   DEPER  =   0.30     relativ break condition  

   TIME   =   0.40     timestep for ELM

  volume/ion in A,a.u.               =       9.54        64.37
  Fermi-wavevector in a.u.,A,eV,Ry     =   1.575370  2.977017 33.766806  2.481790
  Thomas-Fermi vector in A             =   2.676364
 
 Write flags
   LWAVE        =      F    write WAVECAR
   LDOWNSAMPLE  =      F    k-point downsampling of WAVECAR
   LCHARG       =      F    write CHGCAR
   LVTOT        =      F    write LOCPOT, total local potential
   LVHAR        =      F    write LOCPOT, Hartree potential only
   LELF         =      F    write electronic localiz. function (ELF)
   LORBIT       =     11    0 simple, 1 ext, 2 COOP (PROOUT), +10 PAW based schemes


 Dipole corrections
   LMONO  =      F    monopole corrections only (constant potential shift)
   LDIPOL =      F    correct potential (dipole corrections)
   IDIPOL =      0    1-x, 2-y, 3-z, 4-all directions 
   EPSILON=  1.0000000 bulk dielectric constant

 LDA+U is selected, type is set to LDAUTYPE =  2
   angular momentum for each species LDAUL =     2   -1
   U (eV)           for each species LDAUU =   3.0  0.0
   J (eV)           for each species LDAUJ =   0.0  0.0
 Exchange correlation treatment:
   GGA     =    --    GGA type
   LEXCH   =     8    internal setting for exchange type
   VOSKOWN=      0    Vosko Wilk Nusair interpolation
   LHFCALC =     F    Hartree Fock is set to
   LHFONE  =     F    Hartree Fock one center treatment
   AEXX    =    0.0000 exact exchange contribution

 Linear response parameters
   LEPSILON=     F    determine dielectric tensor
   LRPA    =     F    only Hartree local field effects (RPA)
   LNABLA  =     F    use nabla operator in PAW spheres
   LVEL    =     F    velocity operator in full k-point grid
   LINTERFAST=   F  fast interpolation
   KINTER  =     0    interpolate to denser k-point grid
   CSHIFT  =0.1000    complex shift for real part using Kramers Kronig
   OMEGAMAX=  -1.0    maximum frequency
   DEG_THRESHOLD= 0.2000000E-02 threshold for treating states as degnerate
   RTIME   =   -0.100 relaxation time in fs
  (WPLASMAI=    0.000 imaginary part of plasma frequency in eV, 0.658/RTIME)
   DFIELD  = 0.0000000 0.0000000 0.0000000 field for delta impulse in time
 
 Orbital magnetization related:
   ORBITALMAG=     F  switch on orbital magnetization
   LCHIMAG   =     F  perturbation theory with respect to B field
   DQ        =  0.001000  dq finite difference perturbation B field
   LLRAUG    =     F  two centre corrections for induced B field



--------------------------------------------------------------------------------------------------------


 Static calculation
 charge density and potential will be updated during run
 spin polarized calculation
 Variant of blocked Davidson
 Davidson routine will perform the subspace rotation
 perform sub-space diagonalisation
    after iterative eigenvector-optimisation
 modified Broyden-mixing scheme, WC =      100.0
 initial mixing is a Kerker type mixing with AMIX =  0.4000 and BMIX =      1.0000
 Hartree-type preconditioning will be used
 using additional bands          112
 reciprocal scheme for non local part
 use partial core corrections
 calculate Harris-corrections to forces 
   (improved forces if not selfconsistent)
 use gradient corrections 
 use of overlap-Matrix (Vanderbilt PP)
 Fermi-smearing in eV        SIGMA  =   0.01


--------------------------------------------------------------------------------------------------------


  energy-cutoff  :      500.00
  volume of cell :      610.49
      direct lattice vectors                 reciprocal lattice vectors
     8.459115080  0.000000000  0.000000000     0.118215675  0.000000000  0.000000000
     0.000000000  8.495235590  0.000000000     0.000000000  0.117713039  0.000000000
     0.000000000  0.000000000  8.495235590     0.000000000  0.000000000  0.117713039

  length of vectors
     8.459115080  8.495235590  8.495235590     0.118215675  0.117713039  0.117713039


 
 k-points in units of 2pi/SCALE and weight: pymatgen with grid density = 1780 / numb
   0.00985131  0.00980942  0.00980942       0.009
   0.02955392  0.00980942  0.00980942       0.009
   0.04925653  0.00980942  0.00980942       0.009
  -0.04925653  0.00980942  0.00980942       0.009
  -0.02955392  0.00980942  0.00980942       0.009
  -0.00985131  0.00980942  0.00980942       0.009
   0.00985131  0.02942826  0.00980942       0.009
   0.02955392  0.02942826  0.00980942       0.009
   0.04925653  0.02942826  0.00980942       0.009
  -0.04925653  0.02942826  0.00980942       0.009
  -0.02955392  0.02942826  0.00980942       0.009
  -0.00985131  0.02942826  0.00980942       0.009
   0.00985131  0.04904710  0.00980942       0.009
   0.02955392  0.04904710  0.00980942       0.009
   0.04925653  0.04904710  0.00980942       0.009
  -0.04925653  0.04904710  0.00980942       0.009
  -0.02955392  0.04904710  0.00980942       0.009
  -0.00985131  0.04904710  0.00980942       0.009
   0.00985131 -0.04904710  0.00980942       0.009
   0.02955392 -0.04904710  0.00980942       0.009
   0.04925653 -0.04904710  0.00980942       0.009
  -0.04925653 -0.04904710  0.00980942       0.009
  -0.02955392 -0.04904710  0.00980942       0.009
  -0.00985131 -0.04904710  0.00980942       0.009
   0.00985131 -0.02942826  0.00980942       0.009
   0.02955392 -0.02942826  0.00980942       0.009
   0.04925653 -0.02942826  0.00980942       0.009
  -0.04925653 -0.02942826  0.00980942       0.009
  -0.02955392 -0.02942826  0.00980942       0.009
  -0.00985131 -0.02942826  0.00980942       0.009
   0.00985131 -0.00980942  0.00980942       0.009
   0.02955392 -0.00980942  0.00980942       0.009
   0.04925653 -0.00980942  0.00980942       0.009
  -0.04925653 -0.00980942  0.00980942       0.009
  -0.02955392 -0.00980942  0.00980942       0.009
  -0.00985131 -0.00980942  0.00980942       0.009
   0.00985131  0.00980942  0.02942826       0.009
   0.02955392  0.00980942  0.02942826       0.009
   0.04925653  0.00980942  0.02942826       0.009
  -0.04925653  0.00980942  0.02942826       0.009
  -0.02955392  0.00980942  0.02942826       0.009
  -0.00985131  0.00980942  0.02942826       0.009
   0.00985131  0.02942826  0.02942826       0.009
   0.02955392  0.02942826  0.02942826       0.009
   0.04925653  0.02942826  0.02942826       0.009
  -0.04925653  0.02942826  0.02942826       0.009
  -0.02955392  0.02942826  0.02942826       0.009
  -0.00985131  0.02942826  0.02942826       0.009
   0.00985131  0.04904710  0.02942826       0.009
   0.02955392  0.04904710  0.02942826       0.009
   0.04925653  0.04904710  0.02942826       0.009
  -0.04925653  0.04904710  0.02942826       0.009
  -0.02955392  0.04904710  0.02942826       0.009
  -0.00985131  0.04904710  0.02942826       0.009
   0.00985131 -0.04904710  0.02942826       0.009
   0.02955392 -0.04904710  0.02942826       0.009
   0.04925653 -0.04904710  0.02942826       0.009
  -0.04925653 -0.04904710  0.02942826       0.009
  -0.02955392 -0.04904710  0.02942826       0.009
  -0.00985131 -0.04904710  0.02942826       0.009
   0.00985131 -0.02942826  0.02942826       0.009
   0.02955392 -0.02942826  0.02942826       0.009
   0.04925653 -0.02942826  0.02942826       0.009
  -0.04925653 -0.02942826  0.02942826       0.009
  -0.02955392 -0.02942826  0.02942826       0.009
  -0.00985131 -0.02942826  0.02942826       0.009
   0.00985131 -0.00980942  0.02942826       0.009
   0.02955392 -0.00980942  0.02942826       0.009
   0.04925653 -0.00980942  0.02942826       0.009
  -0.04925653 -0.00980942  0.02942826       0.009
  -0.02955392 -0.00980942  0.02942826       0.009
  -0.00985131 -0.00980942  0.02942826       0.009
   0.00985131  0.00980942  0.04904710       0.009
   0.02955392  0.00980942  0.04904710       0.009
   0.04925653  0.00980942  0.04904710       0.009
  -0.04925653  0.00980942  0.04904710       0.009
  -0.02955392  0.00980942  0.04904710       0.009
  -0.00985131  0.00980942  0.04904710       0.009
   0.00985131  0.02942826  0.04904710       0.009
   0.02955392  0.02942826  0.04904710       0.009
   0.04925653  0.02942826  0.04904710       0.009
  -0.04925653  0.02942826  0.04904710       0.009
  -0.02955392  0.02942826  0.04904710       0.009
  -0.00985131  0.02942826  0.04904710       0.009
   0.00985131  0.04904710  0.04904710       0.009
   0.02955392  0.04904710  0.04904710       0.009
   0.04925653  0.04904710  0.04904710       0.009
  -0.04925653  0.04904710  0.04904710       0.009
  -0.02955392  0.04904710  0.04904710       0.009
  -0.00985131  0.04904710  0.04904710       0.009
   0.00985131 -0.04904710  0.04904710       0.009
   0.02955392 -0.04904710  0.04904710       0.009
   0.04925653 -0.04904710  0.04904710       0.009
  -0.04925653 -0.04904710  0.04904710       0.009
  -0.02955392 -0.04904710  0.04904710       0.009
  -0.00985131 -0.04904710  0.04904710       0.009
   0.00985131 -0.02942826  0.04904710       0.009
   0.02955392 -0.02942826  0.04904710       0.009
   0.04925653 -0.02942826  0.04904710       0.009
  -0.04925653 -0.02942826  0.04904710       0.009
  -0.02955392 -0.02942826  0.04904710       0.009
  -0.00985131 -0.02942826  0.04904710       0.009
   0.00985131 -0.00980942  0.04904710       0.009
   0.02955392 -0.00980942  0.04904710       0.009
   0.04925653 -0.00980942  0.04904710       0.009
  -0.04925653 -0.00980942  0.04904710       0.009
  -0.02955392 -0.00980942  0.04904710       0.009
  -0.00985131 -0.00980942  0.04904710       0.009
 
 k-points in reciprocal lattice and weights: pymatgen with grid density = 1780 / numb
   0.08333333  0.08333333  0.08333333       0.009
   0.25000000  0.08333333  0.08333333       0.009
   0.41666667  0.08333333  0.08333333       0.009
  -0.41666667  0.08333333  0.08333333       0.009
  -0.25000000  0.08333333  0.08333333       0.009
  -0.08333333  0.08333333  0.08333333       0.009
   0.08333333  0.25000000  0.08333333       0.009
   0.25000000  0.25000000  0.08333333       0.009
   0.41666667  0.25000000  0.08333333       0.009
  -0.41666667  0.25000000  0.08333333       0.009
  -0.25000000  0.25000000  0.08333333       0.009
  -0.08333333  0.25000000  0.08333333       0.009
   0.08333333  0.41666667  0.08333333       0.009
   0.25000000  0.41666667  0.08333333       0.009
   0.41666667  0.41666667  0.08333333       0.009
  -0.41666667  0.41666667  0.08333333       0.009
  -0.25000000  0.41666667  0.08333333       0.009
  -0.08333333  0.41666667  0.08333333       0.009
   0.08333333 -0.41666667  0.08333333       0.009
   0.25000000 -0.41666667  0.08333333       0.009
   0.41666667 -0.41666667  0.08333333       0.009
  -0.41666667 -0.41666667  0.08333333       0.009
  -0.25000000 -0.41666667  0.08333333       0.009
  -0.08333333 -0.41666667  0.08333333       0.009
   0.08333333 -0.25000000  0.08333333       0.009
   0.25000000 -0.25000000  0.08333333       0.009
   0.41666667 -0.25000000  0.08333333       0.009
  -0.41666667 -0.25000000  0.08333333       0.009
  -0.25000000 -0.25000000  0.08333333       0.009
  -0.08333333 -0.25000000  0.08333333       0.009
   0.08333333 -0.08333333  0.08333333       0.009
   0.25000000 -0.08333333  0.08333333       0.009
   0.41666667 -0.08333333  0.08333333       0.009
  -0.41666667 -0.08333333  0.08333333       0.009
  -0.25000000 -0.08333333  0.08333333       0.009
  -0.08333333 -0.08333333  0.08333333       0.009
   0.08333333  0.08333333  0.25000000       0.009
   0.25000000  0.08333333  0.25000000       0.009
   0.41666667  0.08333333  0.25000000       0.009
  -0.41666667  0.08333333  0.25000000       0.009
  -0.25000000  0.08333333  0.25000000       0.009
  -0.08333333  0.08333333  0.25000000       0.009
   0.08333333  0.25000000  0.25000000       0.009
   0.25000000  0.25000000  0.25000000       0.009
   0.41666667  0.25000000  0.25000000       0.009
  -0.41666667  0.25000000  0.25000000       0.009
  -0.25000000  0.25000000  0.25000000       0.009
  -0.08333333  0.25000000  0.25000000       0.009
   0.08333333  0.41666667  0.25000000       0.009
   0.25000000  0.41666667  0.25000000       0.009
   0.41666667  0.41666667  0.25000000       0.009
  -0.41666667  0.41666667  0.25000000       0.009
  -0.25000000  0.41666667  0.25000000       0.009
  -0.08333333  0.41666667  0.25000000       0.009
   0.08333333 -0.41666667  0.25000000       0.009
   0.25000000 -0.41666667  0.25000000       0.009
   0.41666667 -0.41666667  0.25000000       0.009
  -0.41666667 -0.41666667  0.25000000       0.009
  -0.25000000 -0.41666667  0.25000000       0.009
  -0.08333333 -0.41666667  0.25000000       0.009
   0.08333333 -0.25000000  0.25000000       0.009
   0.25000000 -0.25000000  0.25000000       0.009
   0.41666667 -0.25000000  0.25000000       0.009
  -0.41666667 -0.25000000  0.25000000       0.009
  -0.25000000 -0.25000000  0.25000000       0.009
  -0.08333333 -0.25000000  0.25000000       0.009
   0.08333333 -0.08333333  0.25000000       0.009
   0.25000000 -0.08333333  0.25000000       0.009
   0.41666667 -0.08333333  0.25000000       0.009
  -0.41666667 -0.08333333  0.25000000       0.009
  -0.25000000 -0.08333333  0.25000000       0.009
  -0.08333333 -0.08333333  0.25000000       0.009
   0.08333333  0.08333333  0.41666667       0.009
   0.25000000  0.08333333  0.41666667       0.009
   0.41666667  0.08333333  0.41666667       0.009
  -0.41666667  0.08333333  0.41666667       0.009
  -0.25000000  0.08333333  0.41666667       0.009
  -0.08333333  0.08333333  0.41666667       0.009
   0.08333333  0.25000000  0.41666667       0.009
   0.25000000  0.25000000  0.41666667       0.009
   0.41666667  0.25000000  0.41666667       0.009
  -0.41666667  0.25000000  0.41666667       0.009
  -0.25000000  0.25000000  0.41666667       0.009
  -0.08333333  0.25000000  0.41666667       0.009
   0.08333333  0.41666667  0.41666667       0.009
   0.25000000  0.41666667  0.41666667       0.009
   0.41666667  0.41666667  0.41666667       0.009
  -0.41666667  0.41666667  0.41666667       0.009
  -0.25000000  0.41666667  0.41666667       0.009
  -0.08333333  0.41666667  0.41666667       0.009
   0.08333333 -0.41666667  0.41666667       0.009
   0.25000000 -0.41666667  0.41666667       0.009
   0.41666667 -0.41666667  0.41666667       0.009
  -0.41666667 -0.41666667  0.41666667       0.009
  -0.25000000 -0.41666667  0.41666667       0.009
  -0.08333333 -0.41666667  0.41666667       0.009
   0.08333333 -0.25000000  0.41666667       0.009
   0.25000000 -0.25000000  0.41666667       0.009
   0.41666667 -0.25000000  0.41666667       0.009
  -0.41666667 -0.25000000  0.41666667       0.009
  -0.25000000 -0.25000000  0.41666667       0.009
  -0.08333333 -0.25000000  0.41666667       0.009
   0.08333333 -0.08333333  0.41666667       0.009
   0.25000000 -0.08333333  0.41666667       0.009
   0.41666667 -0.08333333  0.41666667       0.009
  -0.41666667 -0.08333333  0.41666667       0.009
  -0.25000000 -0.08333333  0.41666667       0.009
  -0.08333333 -0.08333333  0.41666667       0.009
 
 position of ions in fractional coordinates (direct lattice) 
   0.28393703  0.00462626  0.00256746
   0.77766505  0.01827894  0.00381159
   0.25634916  0.50756315  0.01686586
   0.78114477  0.51137460  0.02265880
   0.26170542  0.01354630  0.52582271
   0.75617194  0.00081318  0.52563654
   0.25238515  0.50465619  0.52964115
   0.78463594  0.50814218  0.50480431
   0.26884771  0.27959626  0.27831500
   0.75655539  0.28421903  0.25726433
   0.26120886  0.76340179  0.27085313
   0.76659585  0.78327466  0.26609226
   0.26572249  0.28246994  0.75474032
   0.76119742  0.26424541  0.78348485
   0.25249245  0.78322908  0.78410534
   0.78180222  0.75039320  0.76580733
   0.01084601  0.01986400  0.25599460
   0.50332313  0.01696146  0.25399419
   0.02116070  0.51132064  0.25581745
   0.50776851  0.53497706  0.28091165
   0.02255664  0.02082768  0.76238411
   0.50987098  0.00945553  0.76225920
   0.02076725  0.52636281  0.77611468
   0.52530741  0.53492845  0.77355483
   0.01902348  0.26416921  0.02560063
   0.53494462  0.26863988  0.01744459
   0.00990115  0.75359756  0.00229208
   0.50991677  0.78441326  0.01775197
   0.01295519  0.25619386  0.52574780
   0.51843404  0.28021239  0.51403874
   0.00633835  0.77817144  0.53384997
   0.50526781  0.76821660  0.51636749
   0.01194291  0.26506543  0.26622609
   0.53317310  0.27783725  0.28280017
   0.02690696  0.76165218  0.27565435
   0.51474300  0.77789853  0.26800806
   0.02899270  0.27713049  0.76336369
   0.52429845  0.26551476  0.77523590
   0.03467131  0.76746547  0.75544359
   0.52681630  0.77759547  0.76721197
   0.01209506  0.01751332  0.01056024
   0.50092899  0.03040688  0.01471487
   0.01233078  0.52586942  0.02043699
   0.52671631  0.51893825  0.03385582
   0.02301783  0.00202415  0.51003259
   0.50974172  0.03165426  0.50154457
   0.03300190  0.52151421  0.50153979
   0.50911002  0.50053380  0.50471673
   0.27825923  0.26398115  0.00911399
   0.77215555  0.26242293  0.02536816
   0.26068975  0.78199925  0.00483668
   0.76690266  0.75056973  0.00151639
   0.27807335  0.25006108  0.53251243
   0.75763830  0.27396814  0.53209584
   0.25795877  0.78464668  0.52575824
   0.76318642  0.77644886  0.51120445
   0.26712383  0.03326956  0.26600713
   0.75222902  0.02246228  0.26661704
   0.26996514  0.51623614  0.26665628
   0.78387035  0.53514598  0.26132764
   0.25993068  0.01024931  0.75510358
   0.76279400  0.01877151  0.77028333
   0.25607613  0.50652619  0.77364551
   0.76313013  0.52223715  0.75291760
 
 position of ions in cartesian coordinates  (Angst):
   2.40185604  0.03930120  0.02181121
   6.57835819  0.15528394  0.03238039
   2.16848705  4.31186858  0.14327943
   6.60779352  4.34424768  0.19249182
   2.21379627  0.11507901  4.46698778
   6.39654544  0.00690817  4.46540627
   2.13495505  4.28717320  4.49942637
   6.63732575  4.31678754  4.28843157
   2.27421369  2.37523612  2.36435153
   6.39978911  2.41450764  2.18552111
   2.20959579  6.48527809  2.30096113
   6.48472250  6.65410275  2.26051640
   2.24777715  2.39964866  6.41169681
   6.43905657  2.24482703  6.65588841
   2.13586267  6.65371554  6.66115962
   6.61335492  6.37476703  6.50571369
   0.09174765  0.16874940  2.17473440
   4.25766830  0.14409161  2.15774045
   0.17900079  4.34378930  2.17322952
   4.29527229  4.54475613  2.38641065
   0.19080924  0.17693602  6.47663264
   4.31305729  0.08032699  6.47557146
   0.17567252  4.47157609  6.59327702
   4.44363579  4.54434324  6.57153053
   0.16092182  2.24417971  0.21748338
   4.52515808  2.28215907  0.14819587
   0.08375495  6.40198882  0.01947177
   4.31344467  6.66377542  0.15080718
   0.10958944  2.17642719  4.46635138
   4.38549319  2.38047030  4.36688016
   0.05361687  6.61074971  4.53518125
   4.27411853  6.52618104  4.38666347
   0.10102644  2.25179324  2.26165336
   4.51017260  2.36029287  2.40245408
   0.22760908  6.47041470  2.34174867
   4.35427028  6.60843130  2.27679163
   0.24525262  2.35428882  6.48495439
   4.43510092  2.25561043  6.58581163
   0.29328862  6.51979995  6.41767128
   4.45639972  6.60585667  6.51764646
   0.10231351  0.14877982  0.08971170
   4.23741593  0.25831365  0.12500627
   0.10430749  4.46738465  0.17361703
   4.45555390  4.40850271  0.28761315
   0.19471047  0.01719567  4.33284699
   4.31196387  0.26891042  4.26073931
   0.27916686  4.43038610  4.26069868
   4.30662021  4.25215252  4.28768751
   2.35382681  2.24258209  0.07742549
   6.53175266  2.22934463  0.21550847
   2.20520461  6.64326789  0.04108877
   6.48731787  6.37626671  0.01288213
   2.35225450  2.12432778  4.52381858
   6.40894958  2.32742388  4.52027952
   2.18210289  6.66575841  4.46644014
   6.45588173  6.59611601  4.34280223
   2.25963119  0.28263276  2.25979326
   6.36319188  0.19082233  2.26497455
   2.28366620  4.38554766  2.26530794
   6.63084947  4.54619118  2.22003986
   2.19878351  0.08707026  6.41478278
   6.45256219  0.15946839  6.54373832
   2.16617744  4.30305932  6.57230090
   6.45540558  4.43652762  6.39621238
 


--------------------------------------------------------------------------------------------------------


 k-point  1 :   0.0833 0.0833 0.0833  plane waves:   15512
 k-point  2 :   0.2500 0.0833 0.0833  plane waves:   15516
 k-point  3 :   0.4167 0.0833 0.0833  plane waves:   15524
 k-point  4 :  -0.4167 0.0833 0.0833  plane waves:   15524
 k-point  5 :  -0.2500 0.0833 0.0833  plane waves:   15516
 k-point  6 :  -0.0833 0.0833 0.0833  plane waves:   15512
 k-point  7 :   0.0833 0.2500 0.0833  plane waves:   15503
 k-point  8 :   0.2500 0.2500 0.0833  plane waves:   15513
 k-point  9 :   0.4167 0.2500 0.0833  plane waves:   15498
 k-point 10 :  -0.4167 0.2500 0.0833  plane waves:   15498
 k-point 11 :  -0.2500 0.2500 0.0833  plane waves:   15513
 k-point 12 :  -0.0833 0.2500 0.0833  plane waves:   15503
 k-point 13 :   0.0833 0.4167 0.0833  plane waves:   15524
 k-point 14 :   0.2500 0.4167 0.0833  plane waves:   15495
 k-point 15 :   0.4167 0.4167 0.0833  plane waves:   15489
 k-point 16 :  -0.4167 0.4167 0.0833  plane waves:   15489
 k-point 17 :  -0.2500 0.4167 0.0833  plane waves:   15495
 k-point 18 :  -0.0833 0.4167 0.0833  plane waves:   15524
 k-point 19 :   0.0833-0.4167 0.0833  plane waves:   15524
 k-point 20 :   0.2500-0.4167 0.0833  plane waves:   15495
 k-point 21 :   0.4167-0.4167 0.0833  plane waves:   15489
 k-point 22 :  -0.4167-0.4167 0.0833  plane waves:   15489
 k-point 23 :  -0.2500-0.4167 0.0833  plane waves:   15495
 k-point 24 :  -0.0833-0.4167 0.0833  plane waves:   15524
 k-point 25 :   0.0833-0.2500 0.0833  plane waves:   15503
 k-point 26 :   0.2500-0.2500 0.0833  plane waves:   15513
 k-point 27 :   0.4167-0.2500 0.0833  plane waves:   15498
 k-point 28 :  -0.4167-0.2500 0.0833  plane waves:   15498
 k-point 29 :  -0.2500-0.2500 0.0833  plane waves:   15513
 k-point 30 :  -0.0833-0.2500 0.0833  plane waves:   15503
 k-point 31 :   0.0833-0.0833 0.0833  plane waves:   15512
 k-point 32 :   0.2500-0.0833 0.0833  plane waves:   15516
 k-point 33 :   0.4167-0.0833 0.0833  plane waves:   15524
 k-point 34 :  -0.4167-0.0833 0.0833  plane waves:   15524
 k-point 35 :  -0.2500-0.0833 0.0833  plane waves:   15516
 k-point 36 :  -0.0833-0.0833 0.0833  plane waves:   15512
 k-point 37 :   0.0833 0.0833 0.2500  plane waves:   15503
 k-point 38 :   0.2500 0.0833 0.2500  plane waves:   15513
 k-point 39 :   0.4167 0.0833 0.2500  plane waves:   15498
 k-point 40 :  -0.4167 0.0833 0.2500  plane waves:   15498
 k-point 41 :  -0.2500 0.0833 0.2500  plane waves:   15513
 k-point 42 :  -0.0833 0.0833 0.2500  plane waves:   15503
 k-point 43 :   0.0833 0.2500 0.2500  plane waves:   15499
 k-point 44 :   0.2500 0.2500 0.2500  plane waves:   15501
 k-point 45 :   0.4167 0.2500 0.2500  plane waves:   15499
 k-point 46 :  -0.4167 0.2500 0.2500  plane waves:   15499
 k-point 47 :  -0.2500 0.2500 0.2500  plane waves:   15501
 k-point 48 :  -0.0833 0.2500 0.2500  plane waves:   15499
 k-point 49 :   0.0833 0.4167 0.2500  plane waves:   15502
 k-point 50 :   0.2500 0.4167 0.2500  plane waves:   15488
 k-point 51 :   0.4167 0.4167 0.2500  plane waves:   15493
 k-point 52 :  -0.4167 0.4167 0.2500  plane waves:   15493
 k-point 53 :  -0.2500 0.4167 0.2500  plane waves:   15488
 k-point 54 :  -0.0833 0.4167 0.2500  plane waves:   15502
 k-point 55 :   0.0833-0.4167 0.2500  plane waves:   15502
 k-point 56 :   0.2500-0.4167 0.2500  plane waves:   15488
 k-point 57 :   0.4167-0.4167 0.2500  plane waves:   15493
 k-point 58 :  -0.4167-0.4167 0.2500  plane waves:   15493
 k-point 59 :  -0.2500-0.4167 0.2500  plane waves:   15488
 k-point 60 :  -0.0833-0.4167 0.2500  plane waves:   15502
 k-point 61 :   0.0833-0.2500 0.2500  plane waves:   15499
 k-point 62 :   0.2500-0.2500 0.2500  plane waves:   15501
 k-point 63 :   0.4167-0.2500 0.2500  plane waves:   15499
 k-point 64 :  -0.4167-0.2500 0.2500  plane waves:   15499
 k-point 65 :  -0.2500-0.2500 0.2500  plane waves:   15501
 k-point 66 :  -0.0833-0.2500 0.2500  plane waves:   15499
 k-point 67 :   0.0833-0.0833 0.2500  plane waves:   15503
 k-point 68 :   0.2500-0.0833 0.2500  plane waves:   15513
 k-point 69 :   0.4167-0.0833 0.2500  plane waves:   15498
 k-point 70 :  -0.4167-0.0833 0.2500  plane waves:   15498
 k-point 71 :  -0.2500-0.0833 0.2500  plane waves:   15513
 k-point 72 :  -0.0833-0.0833 0.2500  plane waves:   15503
 k-point 73 :   0.0833 0.0833 0.4167  plane waves:   15524
 k-point 74 :   0.2500 0.0833 0.4167  plane waves:   15495
 k-point 75 :   0.4167 0.0833 0.4167  plane waves:   15489
 k-point 76 :  -0.4167 0.0833 0.4167  plane waves:   15489
 k-point 77 :  -0.2500 0.0833 0.4167  plane waves:   15495
 k-point 78 :  -0.0833 0.0833 0.4167  plane waves:   15524
 k-point 79 :   0.0833 0.2500 0.4167  plane waves:   15502
 k-point 80 :   0.2500 0.2500 0.4167  plane waves:   15488
 k-point 81 :   0.4167 0.2500 0.4167  plane waves:   15493
 k-point 82 :  -0.4167 0.2500 0.4167  plane waves:   15493
 k-point 83 :  -0.2500 0.2500 0.4167  plane waves:   15488
 k-point 84 :  -0.0833 0.2500 0.4167  plane waves:   15502
 k-point 85 :   0.0833 0.4167 0.4167  plane waves:   15498
 k-point 86 :   0.2500 0.4167 0.4167  plane waves:   15483
 k-point 87 :   0.4167 0.4167 0.4167  plane waves:   15440
 k-point 88 :  -0.4167 0.4167 0.4167  plane waves:   15440
 k-point 89 :  -0.2500 0.4167 0.4167  plane waves:   15483
 k-point 90 :  -0.0833 0.4167 0.4167  plane waves:   15498
 k-point 91 :   0.0833-0.4167 0.4167  plane waves:   15498
 k-point 92 :   0.2500-0.4167 0.4167  plane waves:   15483
 k-point 93 :   0.4167-0.4167 0.4167  plane waves:   15440
 k-point 94 :  -0.4167-0.4167 0.4167  plane waves:   15440
 k-point 95 :  -0.2500-0.4167 0.4167  plane waves:   15483
 k-point 96 :  -0.0833-0.4167 0.4167  plane waves:   15498
 k-point 97 :   0.0833-0.2500 0.4167  plane waves:   15502
 k-point 98 :   0.2500-0.2500 0.4167  plane waves:   15488
 k-point 99 :   0.4167-0.2500 0.4167  plane waves:   15493
 k-point ** :  -0.4167-0.2500 0.4167  plane waves:   15493
 k-point ** :  -0.2500-0.2500 0.4167  plane waves:   15488
 k-point ** :  -0.0833-0.2500 0.4167  plane waves:   15502
 k-point ** :   0.0833-0.0833 0.4167  plane waves:   15524
 k-point ** :   0.2500-0.0833 0.4167  plane waves:   15495
 k-point ** :   0.4167-0.0833 0.4167  plane waves:   15489
 k-point ** :  -0.4167-0.0833 0.4167  plane waves:   15489
 k-point ** :  -0.2500-0.0833 0.4167  plane waves:   15495
 k-point ** :  -0.0833-0.0833 0.4167  plane waves:   15524

 maximum and minimum number of plane-waves per node :     15524    15440

 maximum number of plane-waves:     15524
 maximum index in each direction: 
   IXMAX=   15   IYMAX=   15   IZMAX=   15
   IXMIN=  -15   IYMIN=  -15   IZMIN=  -15


 serial   3D FFT for wavefunctions
 parallel 3D FFT for charge:
    minimum data exchange during FFTs selected (reduces bandwidth)


 total amount of memory used by VASP MPI-rank0   901042. kBytes
=======================================================================

   base      :      30000. kBytes
   nonl-proj :     499654. kBytes
   fftplans  :       5904. kBytes
   grid      :      23756. kBytes
   one-center:       1990. kBytes
   wavefun   :     339738. kBytes
 
     INWAV:  cpu time    0.0003: real time    0.0013
 Broyden mixing: mesh for mixing (old mesh)
   NGX = 31   NGY = 31   NGZ = 31
  (NGX  =128   NGY  =128   NGZ  =128)
  gives a total of  29791 points

 initial charge density was supplied:
 charge density of overlapping atoms calculated
 number of electron     544.0000000 magnetization      -0.0000000
 keeping initial charge density in first step


--------------------------------------------------------------------------------------------------------


 Maximum index for augmentation-charges         2867 (set IRDMAX)


--------------------------------------------------------------------------------------------------------


 First call to EWALD:  gamma=   0.209
 Maximum number of real-space cells 3x 3x 3
 Maximum number of reciprocal cells 3x 3x 3

    FEWALD:  cpu time    0.0039: real time    0.0039


--------------------------------------- Iteration      1(   1)  ---------------------------------------


    POTLOK:  cpu time    0.1430: real time    0.1522
    SETDIJ:  cpu time    1.0456: real time    1.0465
     EDDAV:  cpu time  964.4534: real time  974.0284
       DOS:  cpu time    0.0361: real time    0.0361
    --------------------------------------------
      LOOP:  cpu time  965.6782: real time  975.2634

 eigenvalue-minimisations  :165888
 total energy-change (2. order) : 0.7439125E+04  (-0.2851789E+05)
 number of electron     544.0000000 magnetization      -0.0000000
 augmentation part      544.0000000 magnetization      -0.0000000

 Free energy of the ion-electron system (eV)
  ---------------------------------------------------
  alpha Z        PSCENC =      3098.46338315
  Ewald energy   TEWEN  =    -48854.23926601
  -Hartree energ DENC   =    -12359.23528122
  -exchange      EXHF   =         0.00000000
  -V(xc)+E(xc)   XCENC  =      2586.83137615
  PAW double counting   =     48202.23304885   -49666.31557984
  entropy T*S    EENTRO =        -0.00833879
  eigenvalues    EBANDS =      3233.11103286
  atomic energy  EATOM  =     61198.28506251
  Solvation  Ediel_sol  =         0.00000000
  ---------------------------------------------------
  free energy    TOTEN  =      7439.12543766 eV

  energy without entropy =     7439.13377645  energy(sigma->0) =     7439.12960705


--------------------------------------------------------------------------------------------------------




--------------------------------------- Iteration      1(   2)  ---------------------------------------


     EDDAV:  cpu time  970.0070: real time  978.8577
       DOS:  cpu time    0.0334: real time    0.0335
    --------------------------------------------
      LOOP:  cpu time  970.0405: real time  978.8912

 eigenvalue-minimisations  :165888
 total energy-change (2. order) :-0.7008365E+04  (-0.6666089E+04)
 number of electron     544.0000000 magnetization      -0.0000000
 augmentation part      544.0000000 magnetization      -0.0000000

 Free energy of the ion-electron system (eV)
  ---------------------------------------------------
  alpha Z        PSCENC =      3098.46338315
  Ewald energy   TEWEN  =    -48854.23926601
  -Hartree energ DENC   =    -12359.23528122
  -exchange      EXHF   =         0.00000000
  -V(xc)+E(xc)   XCENC  =      2586.83137615
  PAW double counting   =     48202.23304885   -49666.31557984
  entropy T*S    EENTRO =        -0.00929417
  eigenvalues    EBANDS =     -3775.25268487
  atomic energy  EATOM  =     61198.28506251
  Solvation  Ediel_sol  =         0.00000000
  ---------------------------------------------------
  free energy    TOTEN  =       430.76076454 eV

  energy without entropy =      430.77005871  energy(sigma->0) =      430.76541163


--------------------------------------------------------------------------------------------------------




--------------------------------------- Iteration      1(   3)  ---------------------------------------


     EDDAV:  cpu time 1225.0300: real time 1234.5552
       DOS:  cpu time    0.0325: real time    0.0325
    --------------------------------------------
      LOOP:  cpu time 1225.0625: real time 1234.5877

 eigenvalue-minimisations  :221824
 total energy-change (2. order) :-0.6768650E+03  (-0.6523891E+03)
 number of electron     544.0000000 magnetization      -0.0000000
 augmentation part      544.0000000 magnetization      -0.0000000

 Free energy of the ion-electron system (eV)
  ---------------------------------------------------
  alpha Z        PSCENC =      3098.46338315
  Ewald energy   TEWEN  =    -48854.23926601
  -Hartree energ DENC   =    -12359.23528122
  -exchange      EXHF   =         0.00000000
  -V(xc)+E(xc)   XCENC  =      2586.83137615
  PAW double counting   =     48202.23304885   -49666.31557984
  entropy T*S    EENTRO =        -0.01522531
  eigenvalues    EBANDS =     -4452.11178444
  atomic energy  EATOM  =     61198.28506251
  Solvation  Ediel_sol  =         0.00000000
  ---------------------------------------------------
  free energy    TOTEN  =      -246.10426617 eV

  energy without entropy =     -246.08904086  energy(sigma->0) =     -246.09665351


--------------------------------------------------------------------------------------------------------




--------------------------------------- Iteration      1(   4)  ---------------------------------------


     EDDAV:  cpu time 1052.8186: real time 1061.5919
       DOS:  cpu time    0.0337: real time    0.0337
    --------------------------------------------
      LOOP:  cpu time 1052.8523: real time 1061.6257

 eigenvalue-minimisations  :186752
 total energy-change (2. order) :-0.2656720E+02  (-0.2640688E+02)
 number of electron     544.0000000 magnetization      -0.0000000
 augmentation part      544.0000000 magnetization      -0.0000000

 Free energy of the ion-electron system (eV)
  ---------------------------------------------------
  alpha Z        PSCENC =      3098.46338315
  Ewald energy   TEWEN  =    -48854.23926601
  -Hartree energ DENC   =    -12359.23528122
  -exchange      EXHF   =         0.00000000
  -V(xc)+E(xc)   XCENC  =      2586.83137615
  PAW double counting   =     48202.23304885   -49666.31557984
  entropy T*S    EENTRO =        -0.01553116
  eigenvalues    EBANDS =     -4478.67867862
  atomic energy  EATOM  =     61198.28506251
  Solvation  Ediel_sol  =         0.00000000
  ---------------------------------------------------
  free energy    TOTEN  =      -272.67146619 eV

  energy without entropy =     -272.65593503  energy(sigma->0) =     -272.66370061


--------------------------------------------------------------------------------------------------------




--------------------------------------- Iteration      1(   5)  ---------------------------------------


     EDDAV:  cpu time 1270.6509: real time 1279.9010
       DOS:  cpu time    0.0346: real time    0.0346
    CHARGE:  cpu time   24.0280: real time   24.0704
    MIXING:  cpu time    0.0071: real time    0.0071
    --------------------------------------------
      LOOP:  cpu time 1294.7204: real time 1304.0131

 eigenvalue-minimisations  :232064
 total energy-change (2. order) :-0.5736226E+00  (-0.5734179E+00)
 number of electron     544.0000009 magnetization      -5.5063870
 augmentation part      186.0690868 magnetization      -2.5421026

 Broyden mixing:
  rms(total) = 0.15795E+02    rms(broyden)= 0.15793E+02
  rms(prec ) = 0.16938E+02
  weight for this iteration     100.00

 Free energy of the ion-electron system (eV)
  ---------------------------------------------------
  alpha Z        PSCENC =      3098.46338315
  Ewald energy   TEWEN  =    -48854.23926601
  -Hartree energ DENC   =    -12359.23528122
  -exchange      EXHF   =         0.00000000
  -V(xc)+E(xc)   XCENC  =      2586.83137615
  PAW double counting   =     48202.23304885   -49666.31557984
  entropy T*S    EENTRO =        -0.01555848
  eigenvalues    EBANDS =     -4479.25227390
  atomic energy  EATOM  =     61198.28506251
  Solvation  Ediel_sol  =         0.00000000
  ---------------------------------------------------
  free energy    TOTEN  =      -273.24508879 eV

  energy without entropy =     -273.22953031  energy(sigma->0) =     -273.23730955


--------------------------------------------------------------------------------------------------------




--------------------------------------- Iteration      1(   6)  ---------------------------------------


    POTLOK:  cpu time    0.1150: real time    0.1154
    SETDIJ:  cpu time    0.9867: real time    0.9874
     EDDAV:  cpu time 1187.1873: real time 1197.7252
       DOS:  cpu time    0.0345: real time    0.0345
    CHARGE:  cpu time   23.9131: real time   23.9760
    MIXING:  cpu time    0.0034: real time    0.0036
    --------------------------------------------
      LOOP:  cpu time 1212.2400: real time 1222.8422

 eigenvalue-minimisations  :211712
 total energy-change (2. order) :-0.1929200E+03  (-0.7820772E+02)
 number of electron     544.0000010 magnetization      -7.8426709
 augmentation part      200.6481885 magnetization      -4.3204176

 Broyden mixing:
  rms(total) = 0.66144E+01    rms(broyden)= 0.66124E+01
  rms(prec ) = 0.72805E+01
  weight for this iteration     100.00

 eigenvalues of (default mixing * dielectric matrix)
  average eigenvalue GAMMA=   0.7927
  0.7927

 Free energy of the ion-electron system (eV)
  ---------------------------------------------------
  alpha Z        PSCENC =      3098.46338315
  Ewald energy   TEWEN  =    -48854.23926601
  -Hartree energ DENC   =    -11640.62313839
  -exchange      EXHF   =         0.00000000
  -V(xc)+E(xc)   XCENC  =      2430.48294061
  PAW double counting   =     52165.79729944   -53569.98967206
  entropy T*S    EENTRO =        -0.00542847
  eigenvalues    EBANDS =     -5294.33621996
  atomic energy  EATOM  =     61198.28506251
  Solvation  Ediel_sol  =         0.00000000
  ---------------------------------------------------
  free energy    TOTEN  =      -466.16503919 eV

  energy without entropy =     -466.15961071  energy(sigma->0) =     -466.16232495


--------------------------------------------------------------------------------------------------------




--------------------------------------- Iteration      1(   7)  ---------------------------------------


    POTLOK:  cpu time    0.1192: real time    0.1199
    SETDIJ:  cpu time    0.9947: real time    0.9958
     EDDAV:  cpu time 1212.2000: real time 1220.8594
       DOS:  cpu time    0.0326: real time    0.0327
    CHARGE:  cpu time   22.9404: real time   22.9955
    MIXING:  cpu time    0.0037: real time    0.0037
    --------------------------------------------
      LOOP:  cpu time 1236.2906: real time 1245.0070

 eigenvalue-minimisations  :216832
 total energy-change (2. order) :-0.6579205E+02  (-0.2665778E+02)
 number of electron     544.0000010 magnetization      -8.7475290
 augmentation part      198.7787951 magnetization      -5.0411830

 Broyden mixing:
  rms(total) = 0.60384E+01    rms(broyden)= 0.60379E+01
  rms(prec ) = 0.73729E+01
  weight for this iteration     100.00

 eigenvalues of (default mixing * dielectric matrix)
  average eigenvalue GAMMA=   0.7080
  0.9429  0.4731

 Free energy of the ion-electron system (eV)
  ---------------------------------------------------
  alpha Z        PSCENC =      3098.46338315
  Ewald energy   TEWEN  =    -48854.23926601
  -Hartree energ DENC   =    -11720.69425722
  -exchange      EXHF   =         0.00000000
  -V(xc)+E(xc)   XCENC  =      2428.40883518
  PAW double counting   =     56047.76050624   -57509.60144424
  entropy T*S    EENTRO =        -0.00326510
  eigenvalues    EBANDS =     -5220.33664214
  atomic energy  EATOM  =     61198.28506251
  Solvation  Ediel_sol  =         0.00000000
  ---------------------------------------------------
  free energy    TOTEN  =      -531.95708763 eV

  energy without entropy =     -531.95382253  energy(sigma->0) =     -531.95545508


--------------------------------------------------------------------------------------------------------




--------------------------------------- Iteration      1(   8)  ---------------------------------------


    POTLOK:  cpu time    0.1122: real time    0.1125
    SETDIJ:  cpu time    0.9638: real time    0.9647
     EDDAV:  cpu time 1136.3703: real time 1144.0693
       DOS:  cpu time    0.0365: real time    0.0365
    CHARGE:  cpu time   23.4214: real time   23.4602
    MIXING:  cpu time    0.0060: real time    0.0060
    --------------------------------------------
      LOOP:  cpu time 1160.9102: real time 1168.6493

 eigenvalue-minimisations  :201472
 total energy-change (2. order) : 0.8215070E+01  (-0.6338371E+01)
 number of electron     544.0000010 magnetization      -9.7205689
 augmentation part      198.1123306 magnetization      -5.8886158

 Broyden mixing:
  rms(total) = 0.35882E+01    rms(broyden)= 0.35876E+01
  rms(prec ) = 0.45239E+01
  weight for this iteration     100.00

 eigenvalues of (default mixing * dielectric matrix)
  average eigenvalue GAMMA=   0.7211
  1.1859  0.5858  0.3917

 Free energy of the ion-electron system (eV)
  ---------------------------------------------------
  alpha Z        PSCENC =      3098.46338315
  Ewald energy   TEWEN  =    -48854.23926601
  -Hartree energ DENC   =    -11719.21075936
  -exchange      EXHF   =         0.00000000
  -V(xc)+E(xc)   XCENC  =      2426.55141166
  PAW double counting   =     58395.04305254   -59876.03173798
  entropy T*S    EENTRO =        -0.00729511
  eigenvalues    EBANDS =     -5192.59586890
  atomic energy  EATOM  =     61198.28506251
  Solvation  Ediel_sol  =         0.00000000
  ---------------------------------------------------
  free energy    TOTEN  =      -523.74201751 eV

  energy without entropy =     -523.73472239  energy(sigma->0) =     -523.73836995


--------------------------------------------------------------------------------------------------------




--------------------------------------- Iteration      1(   9)  ---------------------------------------


    POTLOK:  cpu time    0.1364: real time    0.1368
    SETDIJ:  cpu time    0.9009: real time    0.9014
     EDDAV:  cpu time 1207.5680: real time 1217.2440
       DOS:  cpu time    0.0381: real time    0.0382
    CHARGE:  cpu time   24.0361: real time   24.0721
    MIXING:  cpu time    0.0042: real time    0.0042
    --------------------------------------------
      LOOP:  cpu time 1232.6837: real time 1242.3967

 eigenvalue-minimisations  :216192
 total energy-change (2. order) :-0.7427199E+01  (-0.7941989E+01)
 number of electron     544.0000010 magnetization     -10.0461525
 augmentation part      197.5208116 magnetization      -6.7155695

 Broyden mixing:
  rms(total) = 0.30960E+01    rms(broyden)= 0.30956E+01
  rms(prec ) = 0.44583E+01
  weight for this iteration     100.00

 eigenvalues of (default mixing * dielectric matrix)
  average eigenvalue GAMMA=   0.6873
  1.3373  0.6207  0.5337  0.2577

 Free energy of the ion-electron system (eV)
  ---------------------------------------------------
  alpha Z        PSCENC =      3098.46338315
  Ewald energy   TEWEN  =    -48854.23926601
  -Hartree energ DENC   =    -11701.44481710
  -exchange      EXHF   =         0.00000000
  -V(xc)+E(xc)   XCENC  =      2423.48374778
  PAW double counting   =     60745.50505410   -62241.27115304
  entropy T*S    EENTRO =        -0.00341637
[...]
   0.103E+03 -.582E+02 0.383E+02   -.107E+03 0.572E+02 -.362E+02   0.202E+01 0.372E+01 -.215E+01   0.917E-04 -.107E-03 -.410E-04
   -.557E+01 0.184E+02 -.223E+02   0.685E+01 -.180E+02 0.227E+02   -.844E+00 -.111E+01 0.815E+00   -.151E-03 0.139E-04 0.163E-03
   -.364E+02 -.434E+02 -.468E+02   0.364E+02 0.433E+02 0.495E+02   0.725E+00 0.136E+01 -.102E+01   -.747E-05 0.116E-03 -.582E-04
   -.242E+02 -.167E+02 -.835E+02   0.228E+02 0.186E+02 0.860E+02   0.169E+01 -.977E+00 -.106E+01   0.317E-04 0.980E-04 -.272E-04
   -.511E+02 -.188E+02 0.683E+02   0.492E+02 0.182E+02 -.689E+02   0.308E+01 0.571E-01 -.135E+01   -.646E-04 0.741E-04 -.152E-03
   0.968E+02 -.951E+02 -.291E+02   -.965E+02 0.968E+02 0.304E+02   -.172E+01 -.804E+00 -.706E+00   0.734E-04 -.201E-03 -.118E-05
   -.628E+02 -.607E+02 0.481E+02   0.650E+02 0.614E+02 -.487E+02   -.732E+00 0.174E+01 0.142E-01   0.366E-04 -.316E-03 -.236E-03
   0.629E+02 0.953E+02 0.850E+02   -.610E+02 -.978E+02 -.849E+02   -.232E+01 0.102E+01 -.155E+01   0.237E-04 0.144E-03 0.421E-04
   0.671E+02 0.263E+02 0.102E+02   -.650E+02 -.262E+02 -.967E+01   -.320E+01 -.179E+01 -.106E+01   -.996E-05 0.139E-03 0.785E-04
   -.764E+02 0.446E+02 0.266E+02   0.773E+02 -.476E+02 -.259E+02   -.243E+00 0.255E+01 -.165E+01   -.771E-04 0.262E-03 0.589E-04
   0.106E+03 -.591E+02 -.309E+02   -.109E+03 0.599E+02 0.279E+02   0.704E-01 0.290E+00 0.244E+01   0.136E-03 0.309E-03 0.194E-03
   0.683E+00 -.127E+03 -.153E+03   -.133E+01 0.127E+03 0.155E+03   0.150E+01 0.220E+01 -.611E+00   0.310E-03 -.124E-03 -.665E-04
   -.726E+02 0.123E+03 -.276E+02   0.738E+02 -.125E+03 0.276E+02   -.153E+00 0.122E+00 0.364E+00   -.917E-04 -.545E-03 -.229E-03
   0.796E+02 0.629E+01 0.821E+02   -.813E+02 -.651E+01 -.812E+02   0.165E+01 0.165E+00 -.195E+01   0.889E-04 0.935E-04 -.216E-04
   -.482E+02 0.563E+02 -.605E+02   0.494E+02 -.570E+02 0.591E+02   -.952E+00 -.229E+01 0.271E+01   -.105E-03 0.902E-04 -.814E-05
   0.178E+02 0.838E+02 0.156E+03   -.159E+02 -.829E+02 -.159E+03   -.375E+00 -.301E+01 -.155E+01   -.678E-04 -.136E-03 0.829E-04
   -.232E+02 0.628E+02 -.151E+02   0.225E+02 -.616E+02 0.154E+02   0.107E+01 -.933E+00 0.291E+00   0.538E-04 -.175E-03 0.638E-04
   -.104E+01 0.290E+02 -.485E+02   0.211E+00 -.297E+02 0.507E+02   0.156E+01 0.662E+00 -.194E+01   0.262E-04 0.612E-04 0.283E-05
   0.447E+02 0.161E+02 0.356E+02   -.463E+02 -.169E+02 -.362E+02   -.698E+00 0.821E+00 -.122E+01   -.414E-04 0.997E-04 0.340E-04
   0.252E+02 -.236E+02 0.522E+01   -.260E+02 0.229E+02 -.328E+01   -.463E+00 0.120E+01 -.344E+01   0.158E-04 -.108E-03 -.212E-04
   -.129E+02 0.142E+02 0.107E+00   0.138E+02 -.139E+02 -.517E-01   -.110E+01 -.642E+00 -.110E+00   -.698E-05 -.184E-03 0.343E-04
   0.508E+02 0.658E+01 -.239E+02   -.519E+02 -.576E+01 0.253E+02   -.126E+00 -.168E+01 -.570E+00   -.343E-04 0.386E-04 -.266E-04
   0.296E+02 -.232E+02 0.231E+02   -.318E+02 0.228E+02 -.245E+02   0.170E+01 0.785E+00 0.135E+01   0.648E-04 0.127E-03 -.917E-04
   0.411E+02 -.297E+01 -.794E+01   -.419E+02 0.375E+01 0.740E+01   -.214E+01 -.804E+00 0.240E+01   -.369E-04 0.713E-06 0.313E-04
   -.238E+01 0.393E+02 0.143E+02   0.314E+01 -.396E+02 -.148E+02   -.111E+01 -.101E+01 0.726E+00   0.132E-04 -.886E-04 -.575E-05
   -.459E+02 0.118E+02 -.274E+02   0.490E+02 -.131E+02 0.277E+02   -.254E+01 0.120E+01 -.494E+00   -.957E-04 -.147E-03 -.202E-03
   -.765E+02 -.256E+02 -.120E+01   0.799E+02 0.284E+02 0.751E+00   -.749E+00 -.352E+01 -.549E+00   0.257E-03 0.498E-04 0.208E-03
   -.247E+02 0.403E+02 -.496E+01   0.252E+02 -.417E+02 0.529E+01   0.734E+00 -.249E+00 -.173E+01   0.122E-03 0.473E-04 0.173E-04
   0.291E+02 -.196E+02 0.102E+02   -.292E+02 0.199E+02 -.860E+01   -.557E+00 0.410E+00 -.321E+01   -.101E-03 0.791E-04 0.364E-04
   0.479E+02 -.594E+02 0.618E+02   -.483E+02 0.605E+02 -.646E+02   -.970E+00 0.123E+01 0.347E+01   -.218E-04 -.824E-05 0.548E-04
   -.214E+02 -.242E+01 0.768E+01   0.211E+02 0.507E+01 -.946E+01   0.102E+01 -.462E+01 0.312E+01   -.106E-04 0.219E-04 0.976E-04
   0.404E+02 0.334E+00 0.215E+01   -.415E+02 0.175E+01 -.380E+01   -.155E+01 -.303E+01 0.270E+01   0.418E-04 0.655E-05 -.178E-04
   -.215E+02 -.706E+02 -.651E+02   0.219E+02 0.714E+02 0.671E+02   0.440E-02 0.273E+01 0.372E+00   -.355E-04 0.231E-04 0.651E-05
   -.133E+02 0.234E+02 -.238E+02   0.150E+02 -.261E+02 0.234E+02   -.260E+01 0.339E+01 0.121E+01   -.936E-04 0.343E-03 0.518E-03
   -.106E+02 0.117E+02 0.400E+01   0.115E+02 -.124E+02 -.381E+01   -.501E+00 0.917E+00 -.857E+00   0.703E-04 0.721E-04 0.866E-06
   -.434E+01 0.768E+02 -.991E+02   0.346E+01 -.796E+02 0.103E+03   0.103E+01 0.795E+00 -.141E+01   -.113E-03 -.441E-03 -.428E-03
   0.589E+02 -.371E+02 -.511E+02   -.618E+02 0.371E+02 0.525E+02   0.296E+01 0.148E+01 -.481E+00   0.496E-04 -.921E-04 -.373E-04
   0.638E+01 0.141E+00 0.554E+02   -.484E+01 -.293E+01 -.571E+02   -.309E+01 0.478E+01 -.592E+00   -.269E-04 0.721E-04 -.266E-04
   -.224E+02 0.502E+02 0.126E+02   0.218E+02 -.528E+02 -.119E+02   0.241E+01 0.233E+01 -.138E+01   0.316E-04 0.259E-04 -.549E-06
   -.230E+02 0.796E+02 0.273E+02   0.224E+02 -.816E+02 -.268E+02   0.134E+01 -.804E+00 -.132E+01   -.191E-05 -.715E-04 -.354E-04
   0.413E+02 0.641E+02 0.138E+02   -.435E+02 -.674E+02 -.142E+02   0.167E+01 0.162E+01 0.334E+00   0.208E-04 -.375E-04 0.441E-04
   0.416E+02 0.423E+01 0.924E+01   -.432E+02 -.345E+01 -.866E+01   0.471E+00 -.195E+01 -.126E+01   -.467E-04 0.300E-03 0.427E-04
   -.119E+02 -.356E+02 -.146E+02   0.106E+02 0.385E+02 0.156E+02   0.228E+01 -.285E+01 -.150E+01   0.104E-03 -.227E-04 0.219E-04
   -.887E+01 -.183E+02 -.293E+01   0.892E+01 0.190E+02 0.328E+01   -.298E+00 -.159E+00 -.107E+00   -.237E-04 0.277E-04 -.120E-03
   0.536E+02 -.301E+02 -.274E+02   -.550E+02 0.327E+02 0.279E+02   0.453E+00 -.368E+01 0.381E-01   0.470E-04 0.194E-04 -.191E-04
   -.289E+02 -.803E+02 -.215E+02   0.294E+02 0.839E+02 0.213E+02   0.190E-01 -.288E+01 0.181E+01   -.159E-03 -.381E-03 -.969E-04
   0.684E+01 0.109E+02 0.288E+02   -.744E+01 -.116E+02 -.299E+02   0.920E+00 0.551E+00 0.546E+00   0.718E-04 -.521E-04 -.401E-04
   -.857E+02 -.594E+02 -.472E+01   0.885E+02 0.621E+02 0.523E+01   -.176E+01 -.836E+00 -.390E+00   -.215E-04 0.363E-04 0.109E-03
   0.163E+02 0.578E+02 0.179E+02   -.166E+02 -.608E+02 -.200E+02   0.103E+01 0.202E+01 0.298E+01   0.932E-05 0.635E-04 0.137E-04
 -----------------------------------------------------------------------------------------------
   -.151E+02 -.633E+01 0.137E+02   -.462E-13 -.924E-13 0.316E-12   0.151E+02 0.633E+01 -.137E+02   0.158E-03 -.244E-03 -.360E-03
 
 
 POSITION                                       TOTAL-FORCE (eV/Angst)
 -----------------------------------------------------------------------------------
      2.40186      0.03930      0.02181        -2.947390      3.050767      2.508582
      6.57836      0.15528      0.03238        -0.993100     -0.564329      1.244266
      2.16849      4.31187      0.14328         2.243039      0.544967      0.519161
      6.60779      4.34425      0.19249        -2.598039      0.801283      0.464547
      2.21380      0.11508      4.46699         1.103257      1.014869     -2.614209
      6.39655      0.00691      4.46541         0.406894      2.993763     -0.700410
      2.13496      4.28717      4.49943         2.473033      1.064002     -0.403831
      6.63733      4.31679      4.28843        -1.362383      1.252965      1.336879
      2.27421      2.37524      2.36435         0.225716     -1.662733     -0.570699
      6.39979      2.41451      2.18552         1.799017     -1.546803      1.658364
      2.20960      6.48528      2.30096        -0.026954      1.319259      0.090609
      6.48472      6.65410      2.26052         0.263081     -1.592997     -0.179908
      2.24778      2.39965      6.41170         1.015097     -1.805681      2.369065
      6.43906      2.24483      6.65589         0.398874      0.263815     -2.220359
      2.13586      6.65372      6.66116         2.799421     -2.459935     -3.211792
      6.61335      6.37477      6.50571        -2.113046      2.671739      0.020645
      0.09175      0.16875      2.17473         0.438581     -0.638930      1.202163
      4.25767      0.14409      2.15774         0.737419      1.218873      1.727253
      0.17900      4.34379      2.17323         0.322662      0.969364      1.487089
      4.29527      4.54476      2.38641         1.188219     -0.581571     -2.008091
      0.19081      0.17694      6.47663        -1.393480      0.930422      0.600167
      4.31306      0.08033      6.47557         1.434016      2.353929     -0.596160
      0.17567      4.47158      6.59328        -0.444125     -1.442034     -1.455593
      4.44364      4.54434      6.57153        -1.138605     -1.601934     -0.521285
      0.16092      2.24418      0.21748         0.681649     -0.478786     -0.945161
      4.52516      2.28216      0.14820        -2.649713      1.087664     -0.486643
      0.08375      6.40199      0.01947         0.854276      2.404735      1.170209
      4.31344      6.66378      0.15081         1.035756     -1.558158      0.359434
      0.10959      2.17643      4.46635         0.032947     -0.054127     -1.009487
      4.38549      2.38047      4.36688         0.216326     -2.970728      1.299876
      0.05362      6.61075      4.53518         1.508291     -2.062754     -4.019968
      4.27412      6.52618      4.38666         0.415832      0.238545      0.573584
      0.10103      2.25179      2.26165         0.733011     -0.073141      0.229175
      4.51017      2.36029      2.40245        -2.362546     -0.028696     -1.753196
      0.22761      6.47041      2.34175        -1.264759      0.513357     -1.501178
      4.35427      6.60843      2.27679        -0.173878     -0.347604     -0.055004
      0.24525      2.35429      6.48495        -1.270503     -0.863377      0.798118
      4.43510      2.25561      6.58581        -0.447557      0.442787     -0.038886
      0.29329      6.51980      6.41767        -3.019668     -0.031617      1.858232
      4.45640      6.60586      6.51765        -0.355497     -1.323347      0.212867
      0.10231      0.14878      0.08971         0.566030     -0.024939     -0.204807
      4.23742      0.25831      0.12501         2.672559     -0.775899     -1.000126
      0.10431      4.46738      0.17362         1.237989     -1.695470     -1.395986
      4.45555      4.40850      0.28761        -0.669625      0.678284     -1.567151
      0.19471      0.01720      4.33285        -1.341592      2.283197      0.687452
      4.31196      0.26891      4.26074         0.763105     -1.973891      1.351462
      0.27917      4.43039      4.26070        -2.629384     -0.941863      1.056838
      4.30662      4.25215      4.28769         0.366818      3.585116      2.371550
      2.35383      2.24258      0.07743        -0.973812      0.687211      0.884645
      6.53175      2.22934      0.21551         0.419923      0.207732     -0.662208
      2.20520      6.64327      0.04109         0.154508     -2.026193      2.246718
      6.48732      6.37627      0.01288         0.035457      1.513132      0.912317
      2.35225      2.12433      4.52382        -1.551978      1.993092     -2.271276
      6.40895      2.32742      4.52028         1.818044     -0.343059     -0.675169
      2.18210      6.66576      4.46644         0.666053     -2.851796     -0.821534
      6.45588      6.59612      4.34280        -0.563374     -1.645494     -0.037497
      2.25963      0.28263      2.25979        -1.125247     -1.163099     -0.684471
      6.36319      0.19082      2.26497         0.975540      0.115007     -0.438442
      2.28367      4.38555      2.26531        -0.244723      0.555618      0.239876
      6.63085      4.54619      2.22004        -0.977840     -1.069146      0.495918
      2.19878      0.08707      6.41478         0.568635      0.712995      1.661799
      6.45256      0.15947      6.54374         0.323618     -0.173504     -0.613209
      2.16618      4.30306      6.57230         0.995572      1.881020      0.114288
      6.45541      4.43653      6.39621         0.748552     -0.975878      0.910591
 -----------------------------------------------------------------------------------
    total drift:                                0.000512     -0.000022      0.000041


--------------------------------------------------------------------------------------------------------



  FREE ENERGIE OF THE ION-ELECTRON SYSTEM (eV)
  ---------------------------------------------------
  free  energy   TOTEN  =      -526.27029951 eV

  energy  without entropy=     -526.27029950  energy(sigma->0) =     -526.27029951
 


--------------------------------------------------------------------------------------------------------


    POTLOK:  cpu time    0.9068: real time    0.9122


--------------------------------------------------------------------------------------------------------


     LOOP+:  cpu time36400.8997: real time36672.6990
    4ORBIT:  cpu time    0.0000: real time    0.0000
 


 total charge     
 
# of ion       s       p       d       tot
------------------------------------------
    1        0.328   6.375   4.200  10.903
    2        0.294   6.318   4.097  10.708
    3        0.280   6.302   4.066  10.649
    4        0.306   6.354   4.129  10.790
    5        0.327   6.398   4.181  10.906
    6        0.295   6.317   4.082  10.695
    7        0.297   6.330   4.100  10.727
    8        0.286   6.305   4.061  10.652
    9        0.278   6.303   4.034  10.614
   10        0.305   6.343   4.119  10.767
   11        0.281   6.302   4.043  10.626
   12        0.284   6.310   4.050  10.644
   13        0.324   6.372   4.187  10.884
   14        0.293   6.323   4.082  10.698
   15        0.338   6.392   4.269  10.999
   16        0.303   6.338   4.129  10.770
   17        0.279   6.301   4.017  10.596
   18        0.305   6.354   4.101  10.759
   19        0.308   6.364   4.128  10.800
   20        0.308   6.351   4.112  10.771
   21        0.284   6.318   4.091  10.693
   22        0.288   6.323   4.074  10.685
   23        0.294   6.333   4.123  10.750
   24        0.270   6.278   4.021  10.569
   25        0.282   6.308   4.063  10.653
   26        0.296   6.335   4.089  10.720
   27        0.295   6.336   4.119  10.750
   28        0.278   6.306   4.053  10.638
   29        0.275   6.290   4.025  10.591
   30        0.328   6.392   4.181  10.902
   31        0.325   6.384   4.173  10.883
   32        0.273   6.291   4.019  10.583
   33        1.233   2.480   0.000   3.714
   34        1.240   2.495   0.000   3.735
   35        1.238   2.446   0.000   3.684
   36        1.233   2.501   0.000   3.734
   37        1.234   2.481   0.000   3.715
   38        1.235   2.464   0.000   3.699
   39        1.245   2.569   0.000   3.814
   40        1.235   2.485   0.000   3.720
   41        1.235   2.482   0.000   3.717
   42        1.243   2.528   0.000   3.771
   43        1.239   2.563   0.000   3.802
   44        1.235   2.427   0.000   3.661
   45        1.239   2.498   0.000   3.737
   46        1.239   2.452   0.000   3.692
   47        1.242   2.482   0.000   3.724
   48        1.243   2.497   0.000   3.740
   49        1.237   2.429   0.000   3.666
   50        1.237   2.542   0.000   3.779
   51        1.243   2.522   0.000   3.765
   52        1.237   2.474   0.000   3.711
   53        1.243   2.513   0.000   3.756
   54        1.238   2.458   0.000   3.696
   55        1.238   2.473   0.000   3.712
   56        1.237   2.504   0.000   3.741
   57        1.237   2.447   0.000   3.684
   58        1.234   2.453   0.000   3.686
   59        1.235   2.505   0.000   3.740
   60        1.237   2.491   0.000   3.728
   61        1.241   2.542   0.000   3.783
   62        1.234   2.489   0.000   3.723
   63        1.240   2.510   0.000   3.751
   64        1.238   2.491   0.000   3.729
--------------------------------------------------
tot         49.123 282.340 131.219 462.682
 


 magnetization (x)
 
# of ion       s       p       d       tot
------------------------------------------
    1       -0.011  -0.003  -1.080  -1.094
    2        0.020   0.027   2.786   2.833
    3       -0.027  -0.026  -2.892  -2.945
    4       -0.022  -0.031  -2.761  -2.814
    5       -0.028  -0.037  -2.777  -2.842
    6        0.022   0.021   2.803   2.847
    7        0.023   0.027   2.747   2.797
    8        0.022   0.022   2.862   2.907
    9       -0.031  -0.035  -2.851  -2.917
   10        0.028   0.030   2.810   2.868
   11        0.023   0.026   2.816   2.865
   12        0.025   0.024   2.848   2.897
   13       -0.022  -0.017  -2.732  -2.771
   14       -0.018  -0.022  -2.767  -2.807
   15       -0.030  -0.020  -2.805  -2.856
   16       -0.025  -0.025  -2.835  -2.885
   17       -0.027  -0.032  -2.843  -2.902
   18        0.032   0.042   2.808   2.881
   19        0.031   0.043   2.802   2.876
   20       -0.021  -0.028  -2.714  -2.763
   21       -0.023  -0.019  -2.886  -2.928
   22       -0.023  -0.023  -2.837  -2.883
   23       -0.027  -0.024  -2.859  -2.910
   24       -0.024  -0.018  -2.926  -2.968
   25       -0.028  -0.033  -2.892  -2.953
   26        0.020   0.032   2.800   2.851
   27        0.026   0.039   2.733   2.798
   28       -0.034  -0.039  -2.830  -2.903
   29        0.023   0.030   2.836   2.890
   30        0.013   0.014   2.694   2.721
   31       -0.026  -0.035  -2.753  -2.815
   32        0.027   0.032   2.851   2.911
   33        0.002   0.023   0.000   0.025
   34       -0.007  -0.020   0.000  -0.027
   35       -0.007  -0.038   0.000  -0.045
   36       -0.005  -0.021   0.000  -0.026
   37        0.006   0.035   0.000   0.041
   38        0.003   0.023   0.000   0.027
   39        0.012   0.047   0.000   0.059
   40        0.008   0.042   0.000   0.050
   41        0.003   0.022   0.000   0.024
   42       -0.002   0.009   0.000   0.007
   43        0.004   0.028   0.000   0.031
   44        0.011   0.085   0.000   0.096
   45        0.009   0.023   0.000   0.031
   46       -0.006  -0.047   0.000  -0.053
   47       -0.008  -0.029   0.000  -0.037
   48       -0.003  -0.022   0.000  -0.025
   49        0.006   0.070   0.000   0.075
   50       -0.002  -0.013   0.000  -0.015
   51        0.004   0.030   0.000   0.033
   52        0.006   0.033   0.000   0.039
   53        0.003  -0.004   0.000  -0.001
   54       -0.007  -0.051   0.000  -0.058
   55        0.001  -0.038   0.000  -0.037
   56       -0.005  -0.042   0.000  -0.047
   57        0.002   0.010   0.000   0.012
   58       -0.009  -0.041   0.000  -0.051
   59        0.001   0.002   0.000   0.003
   60       -0.006  -0.026   0.000  -0.032
   61        0.011   0.043   0.000   0.054
   62        0.000   0.025   0.000   0.025
   63        0.006   0.040   0.000   0.046
   64        0.006   0.027   0.000   0.033
--------------------------------------------------
tot         -0.075   0.164  -9.845  -9.755
 

 total amount of memory used by VASP MPI-rank0   901042. kBytes
=======================================================================

   base      :      30000. kBytes
   nonl-proj :     499654. kBytes
   fftplans  :       5904. kBytes
   grid      :      23756. kBytes
   one-center:       1990. kBytes
   wavefun   :     339738. kBytes
 
  
  
 General timing and accounting informations for this job:
 ========================================================
  
                  Total CPU time used (sec):    36729.527
                            User time (sec):    36615.699
                          System time (sec):      113.827
                         Elapsed time (sec):    37004.708
  
                   Maximum memory used (kb):     3137620.
                   Average memory used (kb):           0.
  
                          Minor page faults:     15155243
                          Major page faults:          704
                 Voluntary context switches:       263232
